/*--------------------------------*- C++ -*----------------------------------*\
  =========                 |
  \\      /  F ield         | OpenFOAM: The Open Source CFD Toolbox
   \\    /   O peration     | Website:  https://openfoam.org
    \\  /    A nd           | Version:  dev
     \\/     M anipulation  |
\*---------------------------------------------------------------------------*/
FoamFile
{
    format      ascii;
    class       volScalarField;
    location    "0.229352";
    object      T;
}
// * * * * * * * * * * * * * * * * * * * * * * * * * * * * * * * * * * * * * //

dimensions      [0 0 0 1 0 0 0];

internalField   nonuniform List<scalar> 
100
(
240.683
205.735
195.145
190.845
188.795
187.713
187.103
186.746
186.535
186.415
186.353
186.33
186.335
186.358
186.396
186.443
186.496
186.553
186.612
186.671
186.73
186.787
186.842
186.894
186.942
186.988
187.03
187.07
187.108
187.146
187.184
187.225
187.271
187.324
187.386
187.461
187.551
187.66
187.793
187.952
188.141
188.365
188.628
188.935
189.289
189.694
190.156
190.678
191.266
191.922
192.652
193.46
194.35
195.327
196.394
197.557
198.82
200.187
201.664
203.254
204.962
206.793
208.752
210.842
213.068
215.433
217.941
220.598
223.409
226.382
229.526
232.854
236.376
240.106
244.055
248.23
252.635
257.271
262.13
267.202
272.47
277.915
283.495
289.23
295.015
300.682
306.267
312.09
318.873
325.654
333.483
343.517
352.694
366.122
385.107
385.12
385.122
385.124
385.126
384.767
)
;

boundaryField
{
    frontHeated
    {
        type            fixedValue;
        value           uniform 385.15;
    }
    backOutlet
    {
        type            fixedValue;
        value           uniform 385.15;
    }
    defaultFaces
    {
        type            empty;
    }
}


// ************************************************************************* //
