/*--------------------------------*- C++ -*----------------------------------*\
  =========                 |
  \\      /  F ield         | OpenFOAM: The Open Source CFD Toolbox
   \\    /   O peration     | Website:  https://openfoam.org
    \\  /    A nd           | Version:  dev
     \\/     M anipulation  |
\*---------------------------------------------------------------------------*/
FoamFile
{
    format      ascii;
    class       volScalarField;
    location    "0.105927";
    object      p;
}
// * * * * * * * * * * * * * * * * * * * * * * * * * * * * * * * * * * * * * //

dimensions      [1 -1 -2 0 0 0 0];

internalField   nonuniform List<scalar> 
100
(
16418.6
16418.6
16418.6
16418.6
16418.6
16418.6
16418.6
16418.6
16418.6
16418.6
16418.6
16418.5
16418.5
16418.5
16418.5
16418.5
16418.5
16418.5
16418.5
16418.5
16418.4
16418.4
16418.4
16418.4
16418.4
16418.4
16418.3
16418.3
16418.3
16418.2
16418.2
16418.1
16418.1
16418
16418
16417.9
16417.8
16417.8
16417.4
16417.7
16438.6
16080.3
15874.1
15758.2
15633.9
15500.9
15372.5
15245.1
15117.2
14989.3
14861.3
14733
14604.6
14475.9
14346.9
14217.6
14087.9
13957.9
13827.4
13696.6
13565.3
13433.6
13301.4
13169
13036.2
12903.1
12769.7
12636.1
12502.4
12368.4
12234.4
12100.3
11966
11831.8
11697.5
11563.1
11428.7
11294.3
11159.9
11025.5
10891
10756.6
10622.1
10487.7
10353.2
10218.6
10084.3
10000
10000
10000
10000
10000
10000
10000
10000
10000
10000
10000
10000
10000
)
;

boundaryField
{
    frontHeated
    {
        type            calculated;
        value           uniform 16418.6;
    }
    backOutlet
    {
        type            calculated;
        value           uniform 10000;
    }
    defaultFaces
    {
        type            empty;
    }
}


// ************************************************************************* //
