/*--------------------------------*- C++ -*----------------------------------*\
  =========                 |
  \\      /  F ield         | OpenFOAM: The Open Source CFD Toolbox
   \\    /   O peration     | Website:  https://openfoam.org
    \\  /    A nd           | Version:  dev
     \\/     M anipulation  |
\*---------------------------------------------------------------------------*/
FoamFile
{
    format      ascii;
    class       volScalarField;
    location    "0.156331";
    object      T;
}
// * * * * * * * * * * * * * * * * * * * * * * * * * * * * * * * * * * * * * //

dimensions      [0 0 0 1 0 0 0];

internalField   nonuniform List<scalar> 
100
(
237.148
218.811
214.249
212.591
211.865
211.524
211.37
211.318
211.327
211.374
211.445
211.529
211.62
211.713
211.803
211.888
211.965
212.033
212.091
212.142
212.186
212.227
212.273
212.328
212.403
212.508
212.655
212.858
213.13
213.487
213.945
214.519
215.225
216.079
217.096
218.292
219.683
221.283
223.109
225.177
227.504
230.106
233.003
236.214
239.76
243.661
247.941
252.621
257.724
263.271
269.276
275.748
282.644
290.153
297.148
304.622
314.15
326.506
341.319
357.978
364.007
385.12
385.124
385.125
385.127
385.129
385.131
385.133
385.135
385.137
385.139
385.14
385.142
385.143
385.145
385.146
385.147
385.148
385.149
385.149
385.15
385.15
385.151
385.151
385.152
385.152
385.152
385.152
385.152
385.153
385.153
385.153
385.153
385.153
385.153
385.153
385.153
385.153
385.153
385.151
)
;

boundaryField
{
    frontHeated
    {
        type            fixedValue;
        value           uniform 385.15;
    }
    backOutlet
    {
        type            fixedValue;
        value           uniform 385.15;
    }
    defaultFaces
    {
        type            empty;
    }
}


// ************************************************************************* //
