/*--------------------------------*- C++ -*----------------------------------*\
  =========                 |
  \\      /  F ield         | OpenFOAM: The Open Source CFD Toolbox
   \\    /   O peration     | Website:  https://openfoam.org
    \\  /    A nd           | Version:  dev
     \\/     M anipulation  |
\*---------------------------------------------------------------------------*/
FoamFile
{
    format      ascii;
    class       volScalarField;
    location    "0.156331";
    object      thermo:rho;
}
// * * * * * * * * * * * * * * * * * * * * * * * * * * * * * * * * * * * * * //

dimensions      [1 -3 0 0 0 0 0];

internalField   nonuniform List<scalar> 
100
(
0.0912891
0.0989392
0.101046
0.101834
0.102183
0.102348
0.102422
0.102447
0.102443
0.10242
0.102386
0.102345
0.102301
0.102256
0.102213
0.102172
0.102135
0.102102
0.102074
0.10205
0.102029
0.102009
0.101987
0.10196
0.101924
0.101874
0.101803
0.101706
0.101577
0.101407
0.10119
0.100919
0.100588
0.10019
0.0997209
0.0991745
0.0985468
0.097834
0.0970333
0.0961422
0.095159
0.0940827
0.0929129
0.0916499
0.0902946
0.0888489
0.0873153
0.0856976
0.0840007
0.0822311
0.0803972
0.0785101
0.0765946
0.0746124
0.0728561
0.0710685
0.0689129
0.0663051
0.0634276
0.0604759
0.0594745
0.0462362
393.042
874.079
915.504
938.928
952.185
959.694
963.951
966.367
967.739
968.52
968.964
969.217
969.361
969.443
969.49
969.517
969.532
969.541
969.546
969.549
969.55
969.551
969.552
969.552
969.552
969.552
969.552
969.552
969.552
969.552
969.552
969.552
969.552
969.552
969.552
969.552
969.551
969.55
)
;

boundaryField
{
    frontHeated
    {
        type            calculated;
        value           uniform 0.0562093;
    }
    backOutlet
    {
        type            calculated;
        value           uniform 969.55;
    }
    defaultFaces
    {
        type            empty;
    }
}


// ************************************************************************* //
