/*--------------------------------*- C++ -*----------------------------------*\
  =========                 |
  \\      /  F ield         | OpenFOAM: The Open Source CFD Toolbox
   \\    /   O peration     | Website:  https://openfoam.org
    \\  /    A nd           | Version:  dev
     \\/     M anipulation  |
\*---------------------------------------------------------------------------*/
FoamFile
{
    format      ascii;
    class       volScalarField;
    location    "0.218878";
    object      T;
}
// * * * * * * * * * * * * * * * * * * * * * * * * * * * * * * * * * * * * * //

dimensions      [0 0 0 1 0 0 0];

internalField   nonuniform List<scalar> 
100
(
239.671
206.758
197.042
193.163
191.336
190.381
189.848
189.542
189.368
189.274
189.233
189.227
189.245
189.281
189.328
189.383
189.443
189.506
189.57
189.632
189.693
189.752
189.806
189.858
189.905
189.949
189.991
190.031
190.07
190.11
190.154
190.204
190.263
190.333
190.419
190.525
190.654
190.811
191
191.227
191.497
191.814
192.183
192.609
193.099
193.656
194.285
194.993
195.784
196.662
197.634
198.704
199.878
201.16
202.557
204.073
205.714
207.486
209.394
211.445
213.643
215.994
218.501
221.17
224.004
227.01
230.195
233.571
237.153
240.956
245
249.299
253.868
258.714
263.835
269.224
274.863
280.727
286.788
293.015
299.331
305.866
311.897
317.6
324.149
332.613
342.957
353.968
361.779
367.248
384.988
385.119
385.122
385.125
385.127
385.129
385.131
385.133
385.134
384.991
)
;

boundaryField
{
    frontHeated
    {
        type            fixedValue;
        value           uniform 385.15;
    }
    backOutlet
    {
        type            fixedValue;
        value           uniform 385.15;
    }
    defaultFaces
    {
        type            empty;
    }
}


// ************************************************************************* //
