/*--------------------------------*- C++ -*----------------------------------*\
  =========                 |
  \\      /  F ield         | OpenFOAM: The Open Source CFD Toolbox
   \\    /   O peration     | Website:  https://openfoam.org
    \\  /    A nd           | Version:  dev
     \\/     M anipulation  |
\*---------------------------------------------------------------------------*/
FoamFile
{
    format      ascii;
    class       volScalarField;
    location    "0.218878";
    object      thermo:rho;
}
// * * * * * * * * * * * * * * * * * * * * * * * * * * * * * * * * * * * * * //

dimensions      [1 -3 0 0 0 0 0];

internalField   nonuniform List<scalar> 
100
(
0.090328
0.104707
0.10987
0.112076
0.113147
0.113714
0.114033
0.114217
0.114323
0.114379
0.114404
0.114408
0.114397
0.114375
0.114347
0.114313
0.114277
0.114239
0.114201
0.114163
0.114126
0.114091
0.114058
0.114028
0.113999
0.113972
0.113948
0.113924
0.1139
0.113876
0.11385
0.11382
0.113785
0.113743
0.113691
0.113628
0.113552
0.113458
0.113345
0.113211
0.113052
0.112865
0.112648
0.112399
0.112114
0.111791
0.111429
0.111025
0.110576
0.110082
0.109541
0.108951
0.108311
0.107621
0.106879
0.106085
0.105238
0.10434
0.103389
0.102386
0.101333
0.10023
0.0990796
0.0978841
0.0966456
0.095366
0.0940463
0.0926869
0.0912872
0.0898462
0.0883635
0.0868395
0.0852765
0.0836794
0.082055
0.0804126
0.078763
0.0771176
0.0754879
0.0738837
0.0723247
0.0707794
0.0694107
0.0681645
0.0667871
0.0650876
0.0631246
0.0611609
0.0598405
0.0589492
0.055607
91.0071
886.525
923.72
950.376
941.716
937.019
937.018
908.907
783.905
)
;

boundaryField
{
    frontHeated
    {
        type            calculated;
        value           uniform 0.0562093;
    }
    backOutlet
    {
        type            calculated;
        value           uniform 783.863;
    }
    defaultFaces
    {
        type            empty;
    }
}


// ************************************************************************* //
