/*--------------------------------*- C++ -*----------------------------------*\
  =========                 |
  \\      /  F ield         | OpenFOAM: The Open Source CFD Toolbox
   \\    /   O peration     | Website:  https://openfoam.org
    \\  /    A nd           | Version:  dev
     \\/     M anipulation  |
\*---------------------------------------------------------------------------*/
FoamFile
{
    format      ascii;
    class       volScalarField;
    location    "0.194367";
    object      rhoSmear;
}
// * * * * * * * * * * * * * * * * * * * * * * * * * * * * * * * * * * * * * //

dimensions      [1 -3 -1 0 0 0 0];

internalField   nonuniform List<scalar> 
100
(
9.87426e-16
1.09714e-15
1.32876e-15
1.70802e-15
2.27705e-15
3.0991e-15
4.26548e-15
5.90582e-15
8.20235e-15
1.14103e-14
1.5886e-14
2.21268e-14
3.08261e-14
4.29506e-14
5.98474e-14
8.33938e-14
1.16206e-13
1.61931e-13
2.25647e-13
3.14436e-13
4.38161e-13
6.10572e-13
8.50823e-13
1.18561e-12
1.65213e-12
2.30222e-12
3.20812e-12
4.47047e-12
6.22954e-12
8.68079e-12
1.20966e-11
1.68564e-11
2.34892e-11
3.27319e-11
4.56114e-11
6.35589e-11
8.85685e-11
1.23419e-10
1.71983e-10
2.39656e-10
3.33957e-10
4.65365e-10
6.4848e-10
9.03648e-10
1.25922e-09
1.75471e-09
2.44516e-09
3.4073e-09
4.74803e-09
6.61632e-09
9.21975e-09
1.28476e-08
1.7903e-08
2.49475e-08
3.47641e-08
4.84433e-08
6.75051e-08
9.40674e-08
1.31082e-07
1.82661e-07
2.54535e-07
3.54691e-07
4.94258e-07
6.88742e-07
9.59753e-07
1.3374e-06
1.86365e-06
2.59698e-06
3.61885e-06
5.04282e-06
7.02711e-06
9.79218e-06
1.36453e-05
1.90145e-05
2.64965e-05
3.69225e-05
5.1451e-05
7.16963e-05
9.99078e-05
0.00013922
0
0
0
0
0
0
0
0
0
0
0
0
0
-0.000185294
-0.000134626
-9.89158e-05
-7.41966e-05
0
0
0
)
;

boundaryField
{
    frontHeated
    {
        type            zeroGradient;
    }
    backOutlet
    {
        type            zeroGradient;
    }
    defaultFaces
    {
        type            empty;
    }
}


// ************************************************************************* //
