/*--------------------------------*- C++ -*----------------------------------*\
  =========                 |
  \\      /  F ield         | OpenFOAM: The Open Source CFD Toolbox
   \\    /   O peration     | Website:  https://openfoam.org
    \\  /    A nd           | Version:  dev
     \\/     M anipulation  |
\*---------------------------------------------------------------------------*/
FoamFile
{
    format      ascii;
    class       volVectorField;
    location    "0.0416799";
    object      U;
}
// * * * * * * * * * * * * * * * * * * * * * * * * * * * * * * * * * * * * * //

dimensions      [0 1 -1 0 0 0 0];

internalField   nonuniform List<vector> 
100
(
(0.0952243 0 0)
(0.244369 0 0)
(0.410356 0 0)
(0.573732 0 0)
(0.735987 0 0)
(0.898516 0 0)
(1.06108 0 0)
(1.22282 0 0)
(1.38622 0 0)
(1.55239 0 0)
(1.71916 0 0)
(1.90479 0 0)
(2.0802 0 0)
(2.24686 0 0)
(2.42065 0 0)
(2.64445 0 0)
(2.75876 0 0)
(2.83038 0 0)
(2.85329 0 0)
(2.85736 0 0)
(2.85871 0 0)
(2.86107 0 0)
(2.86214 0 0)
(2.86273 0 0)
(2.863 0 0)
(2.86318 0 0)
(2.86323 0 0)
(2.86329 0 0)
(2.86331 0 0)
(2.86334 0 0)
(2.86336 0 0)
(2.86338 0 0)
(2.86339 0 0)
(2.8634 0 0)
(2.86341 0 0)
(2.86341 0 0)
(2.86342 0 0)
(2.86342 0 0)
(2.86342 0 0)
(2.86342 0 0)
(2.86342 0 0)
(2.86342 0 0)
(2.86342 0 0)
(2.86342 0 0)
(2.86342 0 0)
(2.86342 0 0)
(2.86342 0 0)
(2.86342 0 0)
(2.86342 0 0)
(2.86342 0 0)
(2.86342 0 0)
(2.86342 0 0)
(2.86342 0 0)
(2.86342 0 0)
(2.86342 0 0)
(2.86342 0 0)
(2.86342 0 0)
(2.86342 0 0)
(2.86342 0 0)
(2.86342 0 0)
(2.86342 0 0)
(2.86342 0 0)
(2.86342 0 0)
(2.86342 0 0)
(2.86342 0 0)
(2.86342 0 0)
(2.86342 0 0)
(2.86342 0 0)
(2.86342 0 0)
(2.86342 0 0)
(2.86342 0 0)
(2.86342 0 0)
(2.86343 0 0)
(2.86343 0 0)
(2.86343 0 0)
(2.86343 0 0)
(2.86343 0 0)
(2.86343 0 0)
(2.86343 0 0)
(2.86343 0 0)
(2.86343 0 0)
(2.86343 0 0)
(2.86343 0 0)
(2.86343 0 0)
(2.86344 0 0)
(2.86344 0 0)
(2.86346 0 0)
(2.86348 0 0)
(2.86331 0 0)
(2.86486 0 0)
(2.83334 0 0)
(2.76096 0 0)
(2.65099 0 0)
(2.5086 0 0)
(2.38454 0 0)
(2.34758 0 0)
(2.46392 0 0)
(2.77205 0 0)
(3.30743 0 0)
(4.27804 0 0)
)
;

boundaryField
{
    frontHeated
    {
        type            noSlip;
    }
    backOutlet
    {
        type            pressureInletOutletVelocity;
        value           uniform (4.27804 0 0);
    }
    defaultFaces
    {
        type            empty;
    }
}


// ************************************************************************* //
