/*--------------------------------*- C++ -*----------------------------------*\
  =========                 |
  \\      /  F ield         | OpenFOAM: The Open Source CFD Toolbox
   \\    /   O peration     | Website:  https://openfoam.org
    \\  /    A nd           | Version:  dev
     \\/     M anipulation  |
\*---------------------------------------------------------------------------*/
FoamFile
{
    format      ascii;
    class       volScalarField;
    location    "0.103619";
    object      p;
}
// * * * * * * * * * * * * * * * * * * * * * * * * * * * * * * * * * * * * * //

dimensions      [1 -1 -2 0 0 0 0];

internalField   nonuniform List<scalar> 
100
(
16935.6
16935.6
16935.6
16935.6
16935.6
16935.6
16935.6
16935.6
16935.6
16935.6
16935.6
16935.6
16935.6
16935.6
16935.6
16935.6
16935.5
16935.5
16935.5
16935.5
16935.5
16935.5
16935.4
16935.4
16935.4
16935.4
16935.3
16935.3
16935.3
16935.2
16935.2
16935.1
16935.1
16935
16934.9
16934.8
16934.8
16934.5
16934.7
16971.3
16596.6
16381.2
16259.3
16127.9
15987.7
15852.3
15718
15583.1
15448.2
15313.3
15178.2
15042.8
14907.1
14771.1
14634.7
14498
14360.8
14223.2
14085.1
13946.5
13807.5
13668.1
13528.3
13388.1
13247.6
13106.9
12965.9
12824.7
12683.4
12542
12400.4
12258.8
12117.1
11975.4
11833.7
11691.9
11550.1
11408.3
11266.4
11124.6
10982.8
10840.9
10699.1
10557.2
10415.4
10273.3
10132.2
10000
10000
10000
10000
10000
10000
10000
10000
10000
10000
10000
10000
10000
)
;

boundaryField
{
    frontHeated
    {
        type            calculated;
        value           uniform 16935.6;
    }
    backOutlet
    {
        type            calculated;
        value           uniform 10000;
    }
    defaultFaces
    {
        type            empty;
    }
}


// ************************************************************************* //
