/*--------------------------------*- C++ -*----------------------------------*\
  =========                 |
  \\      /  F ield         | OpenFOAM: The Open Source CFD Toolbox
   \\    /   O peration     | Website:  https://openfoam.org
    \\  /    A nd           | Version:  dev
     \\/     M anipulation  |
\*---------------------------------------------------------------------------*/
FoamFile
{
    format      ascii;
    class       volVectorField;
    location    "0.0864421";
    object      U;
}
// * * * * * * * * * * * * * * * * * * * * * * * * * * * * * * * * * * * * * //

dimensions      [0 1 -1 0 0 0 0];

internalField   nonuniform List<vector> 
100
(
(0.000138567 0 0)
(0.000132369 0 0)
(0.000195355 0 0)
(0.000245606 0 0)
(0.000290932 0 0)
(0.000335579 0 0)
(0.000387139 0 0)
(0.000471903 0 0)
(0.000431383 0 0)
(0.000553523 0 0)
(0.000613305 0 0)
(0.000544333 0 0)
(0.000583658 0 0)
(0.000574406 0 0)
(0.00056552 0 0)
(0.000560594 0 0)
(0.000557697 0 0)
(0.000555879 0 0)
(0.000554776 0 0)
(0.000554131 0 0)
(0.000553774 0 0)
(0.000553584 0 0)
(0.000553486 0 0)
(0.000553437 0 0)
(0.000553414 0 0)
(0.000553403 0 0)
(0.000553397 0 0)
(0.000553395 0 0)
(0.000553394 0 0)
(0.000553394 0 0)
(0.000553394 0 0)
(0.000553393 0 0)
(0.000553393 0 0)
(0.000553393 0 0)
(0.000553393 0 0)
(0.000553393 0 0)
(0.000553393 0 0)
(0.000553393 0 0)
(0.000553393 0 0)
(0.000553393 0 0)
(0.000553393 0 0)
(0.000553393 0 0)
(0.000553393 0 0)
(0.000553393 0 0)
(0.000553393 0 0)
(0.000553393 0 0)
(0.000553393 0 0)
(0.000553393 0 0)
(0.000553393 0 0)
(0.000553393 0 0)
(0.000553393 0 0)
(0.000553393 0 0)
(0.000553393 0 0)
(0.000553393 0 0)
(0.000553393 0 0)
(0.000553393 0 0)
(0.000553393 0 0)
(0.000553393 0 0)
(0.000553393 0 0)
(0.000553393 0 0)
(0.000553393 0 0)
(0.000553393 0 0)
(0.000553393 0 0)
(0.000553393 0 0)
(0.000553393 0 0)
(0.000553393 0 0)
(0.000553393 0 0)
(0.000553393 0 0)
(0.000553393 0 0)
(0.000553393 0 0)
(0.000553393 0 0)
(0.000553393 0 0)
(0.000553393 0 0)
(0.000553393 0 0)
(0.000553393 0 0)
(0.000553393 0 0)
(0.000553393 0 0)
(0.000553393 0 0)
(0.000553393 0 0)
(0.000553393 0 0)
(0.000553394 0 0)
(0.000553394 0 0)
(0.000553394 0 0)
(0.000553396 0 0)
(0.000553398 0 0)
(0.000553405 0 0)
(0.000553418 0 0)
(0.000553446 0 0)
(0.000553502 0 0)
(0.000553614 0 0)
(0.000553826 0 0)
(0.000554216 0 0)
(0.000554902 0 0)
(0.000556059 0 0)
(0.000557926 0 0)
(0.000560813 0 0)
(0.000565118 0 0)
(0.000571116 0 0)
(0.000579409 0 0)
(0.000587112 0 0)
)
;

boundaryField
{
    frontHeated
    {
        type            noSlip;
    }
    backOutlet
    {
        type            pressureInletOutletVelocity;
        value           uniform (0.000587112 0 0);
    }
    defaultFaces
    {
        type            empty;
    }
}


// ************************************************************************* //
