/*--------------------------------*- C++ -*----------------------------------*\
  =========                 |
  \\      /  F ield         | OpenFOAM: The Open Source CFD Toolbox
   \\    /   O peration     | Website:  https://openfoam.org
    \\  /    A nd           | Version:  dev
     \\/     M anipulation  |
\*---------------------------------------------------------------------------*/
FoamFile
{
    format      ascii;
    class       volScalarField;
    location    "0.0942217";
    object      p;
}
// * * * * * * * * * * * * * * * * * * * * * * * * * * * * * * * * * * * * * //

dimensions      [1 -1 -2 0 0 0 0];

internalField   nonuniform List<scalar> 
100
(
19340.4
19340.4
19340.4
19340.4
19340.4
19340.4
19340.4
19340.4
19340.4
19340.3
19340.3
19340.3
19340.3
19340.3
19340.3
19340.3
19340.2
19340.2
19340.2
19340.2
19340.1
19340.1
19340.1
19340
19340
19339.9
19339.9
19339.8
19339.7
19339.7
19339.6
19339.5
19339.4
19339.1
19339.2
19427.7
19000
18747.5
18597
18433.9
18261.7
18094.9
17929.3
17763.2
17597.1
17430.9
17264.4
17097.6
16930.4
16762.7
16594.5
16425.7
16256.3
16086.2
15915.5
15744.1
15572.1
15399.6
15226.6
15053.1
14879.3
14705.2
14530.8
14356.3
14181.6
14006.8
13831.9
13656.9
13481.9
13306.9
13131.8
12956.7
12781.6
12606.5
12431.3
12256.2
12081.1
11905.9
11730.8
11555.7
11380.5
11205.4
11030.2
10855.1
10679.9
10504.7
10329.3
10155.9
10000
10000
10000
10000
10000
10000
10000
10000
10000
10000
10000
10000
)
;

boundaryField
{
    frontHeated
    {
        type            calculated;
        value           uniform 19340.4;
    }
    backOutlet
    {
        type            calculated;
        value           uniform 10000;
    }
    defaultFaces
    {
        type            empty;
    }
}


// ************************************************************************* //
