/*--------------------------------*- C++ -*----------------------------------*\
  =========                 |
  \\      /  F ield         | OpenFOAM: The Open Source CFD Toolbox
   \\    /   O peration     | Website:  https://openfoam.org
    \\  /    A nd           | Version:  dev
     \\/     M anipulation  |
\*---------------------------------------------------------------------------*/
FoamFile
{
    format      ascii;
    class       volScalarField;
    location    "0.0942217";
    object      thermo:rho;
}
// * * * * * * * * * * * * * * * * * * * * * * * * * * * * * * * * * * * * * //

dimensions      [1 -3 0 0 0 0 0];

internalField   nonuniform List<scalar> 
100
(
0.161637
0.164878
0.165621
0.16585
0.165903
0.165874
0.165805
0.165715
0.165621
0.165532
0.165458
0.165402
0.165369
0.165356
0.165349
0.165323
0.165237
0.165036
0.164658
0.164038
0.163117
0.161846
0.160183
0.1581
0.155579
0.152611
0.149197
0.145345
0.141069
0.13639
0.13133
0.125951
0.120065
0.115377
0.10038
322.452
870.64
913.781
938.091
951.8
959.534
963.898
966.361
967.752
968.536
968.979
969.229
969.37
969.45
969.494
969.52
969.534
969.542
969.546
969.549
969.55
969.551
969.552
969.552
969.552
969.552
969.552
969.552
969.552
969.552
969.552
969.552
969.552
969.552
969.552
969.552
969.552
969.552
969.552
969.552
969.552
969.552
969.552
969.552
969.552
969.552
969.552
969.552
969.552
969.552
969.552
969.552
969.552
969.552
969.552
969.552
969.552
969.552
969.552
969.552
969.552
969.552
969.552
969.552
969.553
)
;

boundaryField
{
    frontHeated
    {
        type            calculated;
        value           uniform 0.108711;
    }
    backOutlet
    {
        type            calculated;
        value           uniform 969.553;
    }
    defaultFaces
    {
        type            empty;
    }
}


// ************************************************************************* //
