/*--------------------------------*- C++ -*----------------------------------*\
  =========                 |
  \\      /  F ield         | OpenFOAM: The Open Source CFD Toolbox
   \\    /   O peration     | Website:  https://openfoam.org
    \\  /    A nd           | Version:  dev
     \\/     M anipulation  |
\*---------------------------------------------------------------------------*/
FoamFile
{
    format      ascii;
    class       volScalarField;
    location    "0.175506";
    object      rhoSmear;
}
// * * * * * * * * * * * * * * * * * * * * * * * * * * * * * * * * * * * * * //

dimensions      [1 -3 -1 0 0 0 0];

internalField   nonuniform List<scalar> 
100
(
1.82917e-14
2.03241e-14
2.46147e-14
3.16403e-14
4.21815e-14
5.74096e-14
7.90164e-14
1.09403e-13
1.51945e-13
2.1137e-13
2.94281e-13
4.0989e-13
5.71042e-13
7.95643e-13
1.10865e-12
1.54484e-12
2.15268e-12
2.9997e-12
4.18002e-12
5.82479e-12
8.11676e-12
1.13106e-11
1.57612e-11
2.1963e-11
3.06051e-11
4.26478e-11
5.94292e-11
8.28137e-11
1.154e-10
1.60808e-10
2.24084e-10
3.12258e-10
4.35128e-10
6.06345e-10
8.44933e-10
1.1774e-09
1.6407e-09
2.28629e-09
3.18591e-09
4.43953e-09
6.18642e-09
8.6207e-09
1.20128e-08
1.67397e-08
2.33266e-08
3.25053e-08
4.52957e-08
6.31189e-08
8.79554e-08
1.22565e-07
1.70792e-07
2.37997e-07
3.31645e-07
4.62143e-07
6.43991e-07
8.97393e-07
1.2505e-06
1.74256e-06
2.42824e-06
3.38372e-06
4.71516e-06
6.57052e-06
9.15593e-06
1.27587e-05
1.7779e-05
2.47749e-05
3.45234e-05
4.81079e-05
6.70378e-05
9.34163e-05
0.000130174
0
0
0
0
0
0
0
0
0
0
-0.000130175
-9.34174e-05
-6.70392e-05
-4.81098e-05
-3.45258e-05
-2.47781e-05
-1.77835e-05
-1.27649e-05
-9.16458e-06
-6.58255e-06
-4.73192e-06
-3.40705e-06
-2.46075e-06
-1.78786e-06
-1.31363e-06
-9.85351e-07
-7.66558e-07
-6.32938e-07
-5.69644e-07
)
;

boundaryField
{
    frontHeated
    {
        type            zeroGradient;
    }
    backOutlet
    {
        type            zeroGradient;
    }
    defaultFaces
    {
        type            empty;
    }
}


// ************************************************************************* //
