/*--------------------------------*- C++ -*----------------------------------*\
  =========                 |
  \\      /  F ield         | OpenFOAM: The Open Source CFD Toolbox
   \\    /   O peration     | Website:  https://openfoam.org
    \\  /    A nd           | Version:  dev
     \\/     M anipulation  |
\*---------------------------------------------------------------------------*/
FoamFile
{
    format      ascii;
    class       volVectorField;
    location    "0.175506";
    object      U;
}
// * * * * * * * * * * * * * * * * * * * * * * * * * * * * * * * * * * * * * //

dimensions      [0 1 -1 0 0 0 0];

internalField   nonuniform List<vector> 
100
(
(0.042619 0 0)
(0.107994 0 0)
(0.166822 0 0)
(0.224846 0 0)
(0.283148 0 0)
(0.341506 0 0)
(0.399765 0 0)
(0.457949 0 0)
(0.516115 0 0)
(0.574287 0 0)
(0.632468 0 0)
(0.690658 0 0)
(0.748861 0 0)
(0.807085 0 0)
(0.865338 0 0)
(0.923627 0 0)
(0.981958 0 0)
(1.04034 0 0)
(1.09876 0 0)
(1.15724 0 0)
(1.21577 0 0)
(1.27433 0 0)
(1.33292 0 0)
(1.39153 0 0)
(1.45011 0 0)
(1.50864 0 0)
(1.56708 0 0)
(1.62537 0 0)
(1.68343 0 0)
(1.74122 0 0)
(1.79862 0 0)
(1.85553 0 0)
(1.91194 0 0)
(1.96788 0 0)
(2.02308 0 0)
(2.07721 0 0)
(2.13019 0 0)
(2.18212 0 0)
(2.23305 0 0)
(2.28296 0 0)
(2.33172 0 0)
(2.3792 0 0)
(2.42531 0 0)
(2.46998 0 0)
(2.51318 0 0)
(2.55487 0 0)
(2.595 0 0)
(2.63354 0 0)
(2.67046 0 0)
(2.70574 0 0)
(2.73941 0 0)
(2.77139 0 0)
(2.80187 0 0)
(2.83114 0 0)
(2.85847 0 0)
(2.88442 0 0)
(2.91231 0 0)
(2.9426 0 0)
(2.97179 0 0)
(2.99874 0 0)
(3.02213 0 0)
(3.03183 0 0)
(3.01222 0 0)
(2.95547 0 0)
(2.87121 0 0)
(2.78463 0 0)
(2.72681 0 0)
(2.72572 0 0)
(2.83214 0 0)
(3.05107 0 0)
(4.54 0 0)
(4.55095 0 0)
(4.57604 0 0)
(4.63992 0 0)
(4.66451 0 0)
(4.66149 0 0)
(4.65745 0 0)
(4.6526 0 0)
(4.64957 0 0)
(4.64733 0 0)
(4.6457 0 0)
(4.64422 0 0)
(4.64266 0 0)
(4.64081 0 0)
(4.63846 0 0)
(4.63545 0 0)
(4.63169 0 0)
(4.62718 0 0)
(4.62203 0 0)
(4.6164 0 0)
(4.61045 0 0)
(4.60428 0 0)
(4.59795 0 0)
(4.59147 0 0)
(4.58451 0 0)
(4.5789 0 0)
(4.56228 0 0)
(4.61455 0 0)
(4.26631 0 0)
(6.73577 0 0)
)
;

boundaryField
{
    frontHeated
    {
        type            noSlip;
    }
    backOutlet
    {
        type            pressureInletOutletVelocity;
        value           uniform (6.73577 0 0);
    }
    defaultFaces
    {
        type            empty;
    }
}


// ************************************************************************* //
