/*--------------------------------*- C++ -*----------------------------------*\
  =========                 |
  \\      /  F ield         | OpenFOAM: The Open Source CFD Toolbox
   \\    /   O peration     | Website:  https://openfoam.org
    \\  /    A nd           | Version:  dev
     \\/     M anipulation  |
\*---------------------------------------------------------------------------*/
FoamFile
{
    format      ascii;
    class       volScalarField;
    location    "0.147747";
    object      p;
}
// * * * * * * * * * * * * * * * * * * * * * * * * * * * * * * * * * * * * * //

dimensions      [1 -1 -2 0 0 0 0];

internalField   nonuniform List<scalar> 
100
(
10419.3
10419.3
10419.3
10419.3
10419.3
10419.3
10419.3
10419.2
10419.2
10419.2
10419.2
10419.2
10419.2
10419.2
10419.1
10419.1
10419.1
10419.1
10419.1
10419
10419
10419
10419
10418.9
10418.9
10418.9
10418.9
10418.8
10418.8
10418.8
10418.7
10418.7
10418.7
10418.6
10418.6
10418.6
10418.5
10418.5
10418.5
10418.4
10418.4
10418.4
10418.3
10418.3
10418.2
10418.2
10418.1
10418.1
10418.1
10418
10418
10417.9
10417.9
10417.8
10417.8
10417.7
10417.6
10417.2
10881.1
10274.1
10143.2
10167.5
10148.6
10121.4
10092
10060.7
10027.6
10000
10000
10000
10000
10000
10000
10000
10000
10000
10000
10000
10000
10000
10000
10000
10000
10000
10000
10000
10000
10000
10000
10000
10000
10000
10000
10000
10000
10000
10000
10000
10000
10000
)
;

boundaryField
{
    frontHeated
    {
        type            calculated;
        value           uniform 10419.3;
    }
    backOutlet
    {
        type            calculated;
        value           uniform 10000;
    }
    defaultFaces
    {
        type            empty;
    }
}


// ************************************************************************* //
