/*--------------------------------*- C++ -*----------------------------------*\
  =========                 |
  \\      /  F ield         | OpenFOAM: The Open Source CFD Toolbox
   \\    /   O peration     | Website:  https://openfoam.org
    \\  /    A nd           | Version:  dev
     \\/     M anipulation  |
\*---------------------------------------------------------------------------*/
FoamFile
{
    format      ascii;
    class       volScalarField;
    location    "0.147747";
    object      rhoSmear;
}
// * * * * * * * * * * * * * * * * * * * * * * * * * * * * * * * * * * * * * //

dimensions      [1 -3 -1 0 0 0 0];

internalField   nonuniform List<scalar> 
100
(
1.03614e-12
1.15127e-12
1.39431e-12
1.79228e-12
2.38939e-12
3.25199e-12
4.47592e-12
6.19718e-12
8.60701e-12
1.19732e-11
1.66697e-11
2.32184e-11
3.23469e-11
4.50696e-11
6.27999e-11
8.75081e-11
1.21939e-10
1.69919e-10
2.36779e-10
3.29948e-10
4.59778e-10
6.40694e-10
8.92799e-10
1.2441e-09
1.73364e-09
2.41581e-09
3.36639e-09
4.69102e-09
6.53688e-09
9.10906e-09
1.26934e-08
1.7688e-08
2.4648e-08
3.43467e-08
4.78617e-08
6.66946e-08
9.2938e-08
1.29508e-07
1.80468e-07
2.51479e-07
3.50433e-07
4.88324e-07
6.80473e-07
9.48229e-07
1.32135e-06
1.84128e-06
2.5658e-06
3.5754e-06
4.98228e-06
6.94274e-06
9.67461e-06
1.34814e-05
1.87862e-05
2.61783e-05
3.64792e-05
5.08332e-05
7.08354e-05
9.87083e-05
0
0
0
0
0
0
0
0
0
0
-9.87083e-05
-7.08355e-05
-5.08332e-05
-3.64792e-05
-2.61783e-05
-1.87862e-05
-1.34814e-05
-9.67461e-06
-6.94274e-06
-4.98228e-06
-3.5754e-06
-2.5658e-06
-1.84128e-06
-1.32135e-06
-9.48238e-07
-6.80484e-07
-4.8834e-07
-3.50456e-07
-2.51512e-07
-1.80513e-07
-1.29571e-07
-9.30255e-08
-6.68165e-08
-4.80316e-08
-3.45835e-08
-2.4978e-08
-1.81478e-08
-1.3334e-08
-1.00019e-08
-7.78098e-09
-6.42466e-09
-5.7822e-09
)
;

boundaryField
{
    frontHeated
    {
        type            zeroGradient;
    }
    backOutlet
    {
        type            zeroGradient;
    }
    defaultFaces
    {
        type            empty;
    }
}


// ************************************************************************* //
