/*--------------------------------*- C++ -*----------------------------------*\
  =========                 |
  \\      /  F ield         | OpenFOAM: The Open Source CFD Toolbox
   \\    /   O peration     | Website:  https://openfoam.org
    \\  /    A nd           | Version:  dev
     \\/     M anipulation  |
\*---------------------------------------------------------------------------*/
FoamFile
{
    format      ascii;
    class       volScalarField;
    location    "0.147747";
    object      T;
}
// * * * * * * * * * * * * * * * * * * * * * * * * * * * * * * * * * * * * * //

dimensions      [0 0 0 1 0 0 0];

internalField   nonuniform List<scalar> 
100
(
238.034
221.951
218.055
216.655
216.052
215.779
215.669
215.648
215.68
215.745
215.83
215.924
216.022
216.119
216.209
216.291
216.363
216.423
216.473
216.517
216.557
216.602
216.661
216.744
216.866
217.042
217.29
217.626
218.071
218.644
219.363
220.25
221.322
222.599
224.099
225.842
227.847
230.133
232.722
235.634
238.893
242.522
246.549
251
255.905
261.293
267.191
273.628
280.623
288.184
296.294
304.879
313.761
322.632
327.718
346.656
373.013
385.104
385.121
385.124
385.127
385.129
385.132
385.134
385.136
385.138
385.139
385.141
385.142
385.144
385.145
385.146
385.147
385.148
385.149
385.15
385.15
385.151
385.151
385.152
385.152
385.152
385.152
385.152
385.153
385.153
385.153
385.153
385.153
385.153
385.153
385.153
385.153
385.153
385.153
385.153
385.153
385.153
385.153
385.151
)
;

boundaryField
{
    frontHeated
    {
        type            fixedValue;
        value           uniform 385.15;
    }
    backOutlet
    {
        type            fixedValue;
        value           uniform 385.15;
    }
    defaultFaces
    {
        type            empty;
    }
}


// ************************************************************************* //
