/*--------------------------------*- C++ -*----------------------------------*\
  =========                 |
  \\      /  F ield         | OpenFOAM: The Open Source CFD Toolbox
   \\    /   O peration     | Website:  https://openfoam.org
    \\  /    A nd           | Version:  dev
     \\/     M anipulation  |
\*---------------------------------------------------------------------------*/
FoamFile
{
    format      ascii;
    class       volScalarField;
    location    "0.0820089";
    object      p;
}
// * * * * * * * * * * * * * * * * * * * * * * * * * * * * * * * * * * * * * //

dimensions      [1 -1 -2 0 0 0 0];

internalField   nonuniform List<scalar> 
100
(
23360.8
23360.8
23360.8
23360.8
23360.8
23360.8
23360.7
23360.7
23360.7
23360.7
23360.7
23360.6
23360.6
23360.6
23360.6
23360.5
23360.5
23360.4
23360.4
23360.3
23360.3
23360.2
23360.2
23360.1
23360
23359.9
23359.8
23359.6
23359.4
23359.4
23466.3
23018.7
22723.9
22523.3
22311.6
22091.8
21876.8
21662.8
21448.6
21234.3
21019.7
20804.8
20589.3
20373.1
20156
19938.1
19719.1
19499.2
19278.2
19056.3
18833.5
18609.9
18385.6
18160.8
17935.5
17709.8
17483.9
17257.8
17031.5
16805.1
16578.6
16352
16125.4
15898.8
15672.2
15445.5
15218.8
14992.2
14765.5
14538.8
14312.1
14085.4
13858.7
13632
13405.3
13178.6
12951.9
12725.2
12498.5
12271.8
12045.1
11818.4
11591.7
11365
11138.3
10911.6
10684.9
10457.7
10232.3
10004.7
10000
10000
10000
10000
10000
10000
10000
10000
10000
10000
)
;

boundaryField
{
    frontHeated
    {
        type            calculated;
        value           uniform 23360.8;
    }
    backOutlet
    {
        type            calculated;
        value           uniform 10000;
    }
    defaultFaces
    {
        type            empty;
    }
}


// ************************************************************************* //
