/*--------------------------------*- C++ -*----------------------------------*\
  =========                 |
  \\      /  F ield         | OpenFOAM: The Open Source CFD Toolbox
   \\    /   O peration     | Website:  https://openfoam.org
    \\  /    A nd           | Version:  dev
     \\/     M anipulation  |
\*---------------------------------------------------------------------------*/
FoamFile
{
    format      ascii;
    class       volScalarField;
    location    "0.0820089";
    object      p_rgh;
}
// * * * * * * * * * * * * * * * * * * * * * * * * * * * * * * * * * * * * * //

dimensions      [1 -1 -2 0 0 0 0];

internalField   nonuniform List<scalar> 
100
(
23361.7
23361.7
23361.7
23361.7
23361.7
23361.7
23361.7
23361.7
23361.6
23361.6
23361.6
23361.6
23361.6
23361.5
23361.5
23361.5
23361.4
23361.4
23361.3
23361.3
23361.2
23361.1
23361
23360.9
23360.8
23360.7
23360.5
23360.4
23360.1
23360
24547.5
27258
27188.4
27114.7
26974.6
26795.2
26602.9
26401.8
26194.8
25984.6
25772.4
25558.8
25344
25128.2
24911.4
24693.6
24474.7
24254.8
24033.9
23811.9
23589.1
23365.5
23141.2
22916.4
22691.1
22465.5
22239.6
22013.4
21787.1
21560.7
21334.2
21107.7
20881.1
20654.5
20427.8
20201.2
19974.5
19747.8
19521.1
19294.4
19067.7
18841
18614.3
18387.6
18160.9
17934.2
17707.5
17480.8
17254.1
17027.4
16800.7
16574
16347.3
16120.6
15893.9
15667.2
15440.6
15213.4
14988
14760.4
14755.7
14755.7
14755.7
14755.7
14755.7
14755.7
14755.7
14755.7
14755.7
14755.7
)
;

boundaryField
{
    frontHeated
    {
        type            fixedFluxPressure;
        gradient        uniform -55.3763;
        value           uniform 23361.4;
    }
    backOutlet
    {
        type            prghTotalPressure;
        rho             thermo:rho;
        psi             none;
        gamma           1;
        p0              uniform 0;
        value           uniform 4755.66;
        rho             thermo:rho;
    }
    defaultFaces
    {
        type            empty;
    }
}


// ************************************************************************* //
