/*--------------------------------*- C++ -*----------------------------------*\
  =========                 |
  \\      /  F ield         | OpenFOAM: The Open Source CFD Toolbox
   \\    /   O peration     | Website:  https://openfoam.org
    \\  /    A nd           | Version:  dev
     \\/     M anipulation  |
\*---------------------------------------------------------------------------*/
FoamFile
{
    format      ascii;
    class       volScalarField;
    location    "0.0820089";
    object      rhoSmear;
}
// * * * * * * * * * * * * * * * * * * * * * * * * * * * * * * * * * * * * * //

dimensions      [1 -3 -1 0 0 0 0];

internalField   nonuniform List<scalar> 
100
(
1.03025e-08
1.14472e-08
1.38639e-08
1.78209e-08
2.37581e-08
3.23351e-08
4.45048e-08
6.16195e-08
8.55808e-08
1.19051e-07
1.65749e-07
2.30864e-07
3.21631e-07
4.48134e-07
6.24429e-07
8.70106e-07
1.21246e-06
1.68953e-06
2.35433e-06
3.28073e-06
4.57164e-06
6.37052e-06
8.87723e-06
1.23703e-05
1.72379e-05
2.40207e-05
3.34726e-05
4.66436e-05
6.49972e-05
9.05727e-05
0
0
0
0
0
0
0
0
0
0
-9.05727e-05
-6.49972e-05
-4.66436e-05
-3.34726e-05
-2.40207e-05
-1.72379e-05
-1.23703e-05
-8.87723e-06
-6.37052e-06
-4.57164e-06
-3.28072e-06
-2.35432e-06
-1.68952e-06
-1.21244e-06
-8.70077e-07
-6.24388e-07
-4.48076e-07
-3.2155e-07
-2.30752e-07
-1.65593e-07
-1.18834e-07
-8.52781e-08
-6.11976e-08
-4.39169e-08
-3.15158e-08
-2.26165e-08
-1.62302e-08
-1.16472e-08
-8.35829e-09
-5.99811e-09
-4.30439e-09
-3.08894e-09
-2.2167e-09
-1.59075e-09
-1.14156e-09
-8.19214e-10
-5.87888e-10
-4.21883e-10
-3.02753e-10
-2.17263e-10
-1.55914e-10
-1.11888e-10
-8.02937e-11
-5.76212e-11
-4.1351e-11
-2.96755e-11
-2.12972e-11
-1.52852e-11
-1.09716e-11
-7.87709e-12
-5.6578e-12
-4.06715e-12
-2.92841e-12
-2.11505e-12
-1.5367e-12
-1.12908e-12
-8.46924e-13
-6.58868e-13
-5.44019e-13
-4.89617e-13
)
;

boundaryField
{
    frontHeated
    {
        type            zeroGradient;
    }
    backOutlet
    {
        type            zeroGradient;
    }
    defaultFaces
    {
        type            empty;
    }
}


// ************************************************************************* //
