/*--------------------------------*- C++ -*----------------------------------*\
  =========                 |
  \\      /  F ield         | OpenFOAM: The Open Source CFD Toolbox
   \\    /   O peration     | Website:  https://openfoam.org
    \\  /    A nd           | Version:  dev
     \\/     M anipulation  |
\*---------------------------------------------------------------------------*/
FoamFile
{
    format      ascii;
    class       volScalarField;
    location    "0.0064416";
    object      rhoSmear;
}
// * * * * * * * * * * * * * * * * * * * * * * * * * * * * * * * * * * * * * //

dimensions      [1 -3 -1 0 0 0 0];

internalField   nonuniform List<scalar> 
100
(
2.65002e-06
2.94447e-06
3.56608e-06
4.58392e-06
6.11109e-06
8.31726e-06
1.14476e-05
1.58498e-05
2.20132e-05
3.06225e-05
0
0
-3.05265e-05
-2.19066e-05
-1.57207e-05
-1.12815e-05
-8.09591e-06
-5.80982e-06
-4.16927e-06
-2.99197e-06
-2.14711e-06
-1.54082e-06
-1.10573e-06
-7.93497e-07
-5.69433e-07
-4.08639e-07
-2.93249e-07
-2.10443e-07
-1.51019e-07
-1.08375e-07
-7.77724e-08
-5.58113e-08
-4.00516e-08
-2.8742e-08
-2.06259e-08
-1.48017e-08
-1.0622e-08
-7.62264e-09
-5.47019e-09
-3.92554e-09
-2.81706e-09
-2.02159e-09
-1.45074e-09
-1.04109e-09
-7.47111e-10
-5.36145e-10
-3.84751e-10
-2.76107e-10
-1.98141e-10
-1.42191e-10
-1.02039e-10
-7.3226e-11
-5.25488e-11
-3.77103e-11
-2.70618e-11
-1.94202e-11
-1.39364e-11
-1.00011e-11
-7.17704e-12
-5.15042e-12
-3.69606e-12
-2.65239e-12
-1.90342e-12
-1.36594e-12
-9.8023e-13
-7.03437e-13
-5.04803e-13
-3.62259e-13
-2.59966e-13
-1.86558e-13
-1.33879e-13
-9.60745e-14
-6.89454e-14
-4.94769e-14
-3.55058e-14
-2.54798e-14
-1.8285e-14
-1.31217e-14
-9.41647e-15
-6.75749e-15
-4.84935e-15
-3.48002e-15
-2.49736e-15
-1.79218e-15
-1.28613e-15
-9.22989e-16
-6.62401e-16
-4.75413e-16
-3.41248e-16
-2.45e-16
-1.75973e-16
-1.265e-16
-9.10818e-17
-6.5784e-17
-4.77955e-17
-3.51176e-17
-2.63417e-17
-2.04926e-17
-1.69205e-17
-1.52285e-17
)
;

boundaryField
{
    frontHeated
    {
        type            zeroGradient;
    }
    backOutlet
    {
        type            zeroGradient;
    }
    defaultFaces
    {
        type            empty;
    }
}


// ************************************************************************* //
