/*--------------------------------*- C++ -*----------------------------------*\
  =========                 |
  \\      /  F ield         | OpenFOAM: The Open Source CFD Toolbox
   \\    /   O peration     | Website:  https://openfoam.org
    \\  /    A nd           | Version:  dev
     \\/     M anipulation  |
\*---------------------------------------------------------------------------*/
FoamFile
{
    format      ascii;
    class       volVectorField;
    location    "0.0064416";
    object      U;
}
// * * * * * * * * * * * * * * * * * * * * * * * * * * * * * * * * * * * * * //

dimensions      [0 1 -1 0 0 0 0];

internalField   nonuniform List<vector> 
100
(
(0.000513649 0 0)
(1.15665e-06 0 0)
(0.00015443 0 0)
(0.000179348 0 0)
(0.000127472 0 0)
(5.97355e-06 0 0)
(-7.68058e-05 0 0)
(0.00110228 0 0)
(-0.00319207 0 0)
(0.000888467 0 0)
(0.00114301 0 0)
(-0.000768176 0 0)
(3.79789e-05 0 0)
(-0.000111997 0 0)
(-0.000136896 0 0)
(-0.000138092 0 0)
(-0.000136931 0 0)
(-0.000136729 0 0)
(-0.000136702 0 0)
(-0.000136714 0 0)
(-0.000136716 0 0)
(-0.000136715 0 0)
(-0.000136715 0 0)
(-0.000136714 0 0)
(-0.000136714 0 0)
(-0.000136714 0 0)
(-0.000136713 0 0)
(-0.000136713 0 0)
(-0.000136713 0 0)
(-0.000136713 0 0)
(-0.000136713 0 0)
(-0.000136712 0 0)
(-0.000136712 0 0)
(-0.000136712 0 0)
(-0.000136712 0 0)
(-0.000136712 0 0)
(-0.000136712 0 0)
(-0.000136712 0 0)
(-0.000136712 0 0)
(-0.000136712 0 0)
(-0.000136712 0 0)
(-0.000136712 0 0)
(-0.000136712 0 0)
(-0.000136712 0 0)
(-0.000136712 0 0)
(-0.000136712 0 0)
(-0.000136712 0 0)
(-0.000136712 0 0)
(-0.000136712 0 0)
(-0.000136712 0 0)
(-0.000136712 0 0)
(-0.000136712 0 0)
(-0.000136712 0 0)
(-0.000136712 0 0)
(-0.000136712 0 0)
(-0.000136712 0 0)
(-0.000136712 0 0)
(-0.000136712 0 0)
(-0.000136712 0 0)
(-0.000136712 0 0)
(-0.000136712 0 0)
(-0.000136712 0 0)
(-0.000136712 0 0)
(-0.000136712 0 0)
(-0.000136712 0 0)
(-0.000136712 0 0)
(-0.000136712 0 0)
(-0.000136712 0 0)
(-0.000136712 0 0)
(-0.000136712 0 0)
(-0.000136712 0 0)
(-0.000136712 0 0)
(-0.000136712 0 0)
(-0.000136712 0 0)
(-0.000136712 0 0)
(-0.000136712 0 0)
(-0.000136712 0 0)
(-0.000136712 0 0)
(-0.000136712 0 0)
(-0.000136712 0 0)
(-0.000136712 0 0)
(-0.000136712 0 0)
(-0.000136712 0 0)
(-0.000136712 0 0)
(-0.000136712 0 0)
(-0.000136712 0 0)
(-0.000136712 0 0)
(-0.000136712 0 0)
(-0.000136712 0 0)
(-0.000136712 0 0)
(-0.000136712 0 0)
(-0.000136712 0 0)
(-0.000136712 0 0)
(-0.000136711 0 0)
(-0.00013671 0 0)
(-0.000136713 0 0)
(-0.000136724 0 0)
(-0.000136751 0 0)
(-0.000136723 0 0)
(-0.000136638 0 0)
)
;

boundaryField
{
    frontHeated
    {
        type            noSlip;
    }
    backOutlet
    {
        type            pressureInletOutletVelocity;
        value           uniform (-0.000136638 0 0);
    }
    defaultFaces
    {
        type            empty;
    }
}


// ************************************************************************* //
