/*--------------------------------*- C++ -*----------------------------------*\
  =========                 |
  \\      /  F ield         | OpenFOAM: The Open Source CFD Toolbox
   \\    /   O peration     | Website:  https://openfoam.org
    \\  /    A nd           | Version:  dev
     \\/     M anipulation  |
\*---------------------------------------------------------------------------*/
FoamFile
{
    format      ascii;
    class       volScalarField;
    location    "0.22073";
    object      thermo:rho;
}
// * * * * * * * * * * * * * * * * * * * * * * * * * * * * * * * * * * * * * //

dimensions      [1 -3 0 0 0 0 0];

internalField   nonuniform List<scalar> 
100
(
0.0902675
0.104812
0.110072
0.11233
0.113428
0.114012
0.114341
0.114531
0.114641
0.114701
0.114728
0.114734
0.114724
0.114704
0.114676
0.114643
0.114608
0.11457
0.114532
0.114494
0.114458
0.114422
0.114389
0.114358
0.114329
0.114303
0.114277
0.114254
0.11423
0.114206
0.11418
0.114152
0.114118
0.114078
0.11403
0.11397
0.113898
0.11381
0.113704
0.113577
0.113427
0.11325
0.113045
0.112808
0.112538
0.112231
0.111885
0.111499
0.111071
0.110598
0.110079
0.109513
0.108898
0.108233
0.107518
0.106752
0.105935
0.105066
0.104145
0.103173
0.102151
0.10108
0.0999607
0.098796
0.097588
0.0963384
0.0950487
0.0937196
0.0923509
0.0909419
0.0894921
0.0880015
0.0864716
0.0849058
0.0833097
0.0816911
0.0800596
0.0784256
0.0768003
0.0751945
0.0736177
0.0720893
0.0705777
0.0692236
0.0679616
0.0665499
0.0648269
0.0628938
0.0610554
0.0603172
0.0563286
0.0541537
337.193
898.11
938.921
924.684
914.744
914.743
881.609
763.121
)
;

boundaryField
{
    frontHeated
    {
        type            calculated;
        value           uniform 0.0562093;
    }
    backOutlet
    {
        type            calculated;
        value           uniform 763.073;
    }
    defaultFaces
    {
        type            empty;
    }
}


// ************************************************************************* //
