/*--------------------------------*- C++ -*----------------------------------*\
  =========                 |
  \\      /  F ield         | OpenFOAM: The Open Source CFD Toolbox
   \\    /   O peration     | Website:  https://openfoam.org
    \\  /    A nd           | Version:  dev
     \\/     M anipulation  |
\*---------------------------------------------------------------------------*/
FoamFile
{
    format      ascii;
    class       volVectorField;
    location    "0.22073";
    object      U;
}
// * * * * * * * * * * * * * * * * * * * * * * * * * * * * * * * * * * * * * //

dimensions      [0 1 -1 0 0 0 0];

internalField   nonuniform List<vector> 
100
(
(0.0323883 0 0)
(0.0852538 0 0)
(0.131073 0 0)
(0.17437 0 0)
(0.217237 0 0)
(0.260237 0 0)
(0.303384 0 0)
(0.346591 0 0)
(0.389808 0 0)
(0.433022 0 0)
(0.476235 0 0)
(0.51945 0 0)
(0.562672 0 0)
(0.605903 0 0)
(0.649148 0 0)
(0.692411 0 0)
(0.735702 0 0)
(0.779027 0 0)
(0.822394 0 0)
(0.865811 0 0)
(0.909285 0 0)
(0.952819 0 0)
(0.996417 0 0)
(1.04008 0 0)
(1.0838 0 0)
(1.12757 0 0)
(1.17138 0 0)
(1.21521 0 0)
(1.25904 0 0)
(1.30282 0 0)
(1.34653 0 0)
(1.39012 0 0)
(1.43351 0 0)
(1.47665 0 0)
(1.51946 0 0)
(1.56185 0 0)
(1.60372 0 0)
(1.64498 0 0)
(1.68554 0 0)
(1.72529 0 0)
(1.76411 0 0)
(1.80188 0 0)
(1.83846 0 0)
(1.87373 0 0)
(1.90758 0 0)
(1.93994 0 0)
(1.97074 0 0)
(1.99991 0 0)
(2.0274 0 0)
(2.05314 0 0)
(2.07708 0 0)
(2.09914 0 0)
(2.11928 0 0)
(2.13745 0 0)
(2.15362 0 0)
(2.16777 0 0)
(2.17987 0 0)
(2.18991 0 0)
(2.19792 0 0)
(2.20392 0 0)
(2.20793 0 0)
(2.21001 0 0)
(2.21025 0 0)
(2.2088 0 0)
(2.20594 0 0)
(2.20195 0 0)
(2.19707 0 0)
(2.19143 0 0)
(2.18494 0 0)
(2.17726 0 0)
(2.16763 0 0)
(2.15477 0 0)
(2.13701 0 0)
(2.11261 0 0)
(2.08028 0 0)
(2.03978 0 0)
(1.9924 0 0)
(1.94116 0 0)
(1.89076 0 0)
(1.84675 0 0)
(1.81653 0 0)
(1.80235 0 0)
(1.81285 0 0)
(1.87015 0 0)
(1.94197 0 0)
(1.97241 0 0)
(2.0033 0 0)
(2.15059 0 0)
(2.44345 0 0)
(2.58918 0 0)
(3.4899 0 0)
(4.20185 0 0)
(4.57438 0 0)
(4.61387 0 0)
(4.64557 0 0)
(4.66203 0 0)
(4.62807 0 0)
(4.77294 0 0)
(4.13601 0 0)
(6.83223 0 0)
)
;

boundaryField
{
    frontHeated
    {
        type            noSlip;
    }
    backOutlet
    {
        type            pressureInletOutletVelocity;
        value           uniform (6.83223 0 0);
    }
    defaultFaces
    {
        type            empty;
    }
}


// ************************************************************************* //
