/*--------------------------------*- C++ -*----------------------------------*\
  =========                 |
  \\      /  F ield         | OpenFOAM: The Open Source CFD Toolbox
   \\    /   O peration     | Website:  https://openfoam.org
    \\  /    A nd           | Version:  dev
     \\/     M anipulation  |
\*---------------------------------------------------------------------------*/
FoamFile
{
    format      ascii;
    class       volScalarField;
    location    "0.200469";
    object      rhoSmear;
}
// * * * * * * * * * * * * * * * * * * * * * * * * * * * * * * * * * * * * * //

dimensions      [1 -3 -1 0 0 0 0];

internalField   nonuniform List<scalar> 
100
(
3.94906e-16
4.38784e-16
5.31417e-16
6.83095e-16
9.10673e-16
1.23944e-15
1.70592e-15
2.36194e-15
3.2804e-15
4.56336e-15
6.35335e-15
8.84927e-15
1.23284e-14
1.71774e-14
2.3935e-14
3.33521e-14
4.64749e-14
6.47617e-14
9.02441e-14
1.25754e-13
1.75236e-13
2.44189e-13
3.40274e-13
4.74167e-13
6.60745e-13
9.2074e-13
1.28304e-12
1.7879e-12
2.49141e-12
3.47175e-12
4.83784e-12
6.74146e-12
9.39414e-12
1.30906e-11
1.82416e-11
2.54194e-11
3.54216e-11
4.93596e-11
6.87819e-11
9.58467e-11
1.33561e-10
1.86116e-10
2.5935e-10
3.614e-10
5.03607e-10
7.01769e-10
9.77906e-10
1.3627e-09
1.8989e-09
2.6461e-09
3.6873e-09
5.1382e-09
7.16002e-09
9.97739e-09
1.39034e-08
1.93742e-08
2.69976e-08
3.76208e-08
5.24242e-08
7.30524e-08
1.01798e-07
1.41853e-07
1.97671e-07
2.75452e-07
3.83839e-07
5.34874e-07
7.4534e-07
1.03862e-06
1.4473e-06
2.0168e-06
2.81038e-06
3.91623e-06
5.45722e-06
7.60456e-06
1.05969e-05
1.47666e-05
2.0577e-05
2.86738e-05
3.99566e-05
5.5679e-05
7.7588e-05
0.000108118
0.000150661
0
0
0
0
0
0
0
0
0
0
0
0
0
-0.00030009
-0.000233457
0
0
)
;

boundaryField
{
    frontHeated
    {
        type            zeroGradient;
    }
    backOutlet
    {
        type            zeroGradient;
    }
    defaultFaces
    {
        type            empty;
    }
}


// ************************************************************************* //
