/*--------------------------------*- C++ -*----------------------------------*\
  =========                 |
  \\      /  F ield         | OpenFOAM: The Open Source CFD Toolbox
   \\    /   O peration     | Website:  https://openfoam.org
    \\  /    A nd           | Version:  dev
     \\/     M anipulation  |
\*---------------------------------------------------------------------------*/
FoamFile
{
    format      ascii;
    class       volScalarField;
    location    "0.126159";
    object      p;
}
// * * * * * * * * * * * * * * * * * * * * * * * * * * * * * * * * * * * * * //

dimensions      [1 -1 -2 0 0 0 0];

internalField   nonuniform List<scalar> 
100
(
12843.6
12843.6
12843.6
12843.6
12843.6
12843.6
12843.6
12843.6
12843.6
12843.6
12843.6
12843.6
12843.6
12843.6
12843.6
12843.6
12843.6
12843.6
12843.6
12843.6
12843.6
12843.6
12843.6
12843.6
12843.6
12843.6
12843.6
12843.6
12843.6
12843.6
12843.6
12843.6
12843.6
12843.6
12843.6
12843.5
12843.5
12843.5
12843.5
12843.5
12843.4
12843.4
12843.4
12843.3
12843.3
12843.3
12843.3
12842.8
12843.4
12703.4
12518.6
12387.8
12309.5
12236.7
12157.1
12079.3
12002.4
11925.1
11847.5
11769.8
11692.1
11614.2
11536.2
11458
11379.7
11301.3
11222.8
11144
11065.1
10986.1
10906.8
10827.4
10747.7
10668
10588
10507.9
10427.7
10347.4
10266.9
10186.4
10105.6
10024.3
10000
10000
10000
10000
10000
10000
10000
10000
10000
10000
10000
10000
10000
10000
10000
10000
10000
10000
)
;

boundaryField
{
    frontHeated
    {
        type            calculated;
        value           uniform 12843.6;
    }
    backOutlet
    {
        type            calculated;
        value           uniform 10000;
    }
    defaultFaces
    {
        type            empty;
    }
}


// ************************************************************************* //
