/*--------------------------------*- C++ -*----------------------------------*\
  =========                 |
  \\      /  F ield         | OpenFOAM: The Open Source CFD Toolbox
   \\    /   O peration     | Website:  https://openfoam.org
    \\  /    A nd           | Version:  dev
     \\/     M anipulation  |
\*---------------------------------------------------------------------------*/
FoamFile
{
    format      ascii;
    class       volScalarField;
    location    "0.126159";
    object      p_rgh;
}
// * * * * * * * * * * * * * * * * * * * * * * * * * * * * * * * * * * * * * //

dimensions      [1 -1 -2 0 0 0 0];

internalField   nonuniform List<scalar> 
100
(
12844.1
12844.2
12844.2
12844.2
12844.2
12844.2
12844.2
12844.2
12844.2
12844.2
12844.2
12844.2
12844.2
12844.2
12844.2
12844.2
12844.2
12844.2
12844.2
12844.2
12844.2
12844.2
12844.2
12844.2
12844.2
12844.2
12844.2
12844.2
12844.2
12844.2
12844.2
12844.1
12844.1
12844.1
12844.1
12844.1
12844.1
12844
12844
12844
12843.9
12843.9
12843.8
12843.8
12843.7
12843.7
12843.7
12843.2
12843.6
15382.7
16861.2
16911.2
16934.5
16918.8
16871.4
16811.7
16745
16673.4
16599
16523.1
16446.4
16369.1
16291.4
16213.4
16135.3
16056.9
15978.4
15899.7
15820.8
15741.7
15662.5
15583
15503.4
15423.6
15343.7
15263.6
15183.4
15103
15022.6
14942
14861.3
14780
14755.7
14755.7
14755.7
14755.7
14755.7
14755.7
14755.7
14755.7
14755.7
14755.7
14755.7
14755.7
14755.7
14755.7
14755.7
14755.7
14755.7
14755.7
)
;

boundaryField
{
    frontHeated
    {
        type            fixedFluxPressure;
        gradient        uniform -41.82;
        value           uniform 12843.9;
    }
    backOutlet
    {
        type            prghTotalPressure;
        rho             thermo:rho;
        psi             none;
        gamma           1;
        p0              uniform 0;
        value           uniform 4755.66;
        rho             thermo:rho;
    }
    defaultFaces
    {
        type            empty;
    }
}


// ************************************************************************* //
