/*--------------------------------*- C++ -*----------------------------------*\
  =========                 |
  \\      /  F ield         | OpenFOAM: The Open Source CFD Toolbox
   \\    /   O peration     | Website:  https://openfoam.org
    \\  /    A nd           | Version:  dev
     \\/     M anipulation  |
\*---------------------------------------------------------------------------*/
FoamFile
{
    format      ascii;
    class       volScalarField;
    location    "0.126159";
    object      T;
}
// * * * * * * * * * * * * * * * * * * * * * * * * * * * * * * * * * * * * * //

dimensions      [0 0 0 1 0 0 0];

internalField   nonuniform List<scalar> 
100
(
242.146
231.345
228.799
227.905
227.546
227.415
227.399
227.448
227.533
227.639
227.753
227.867
227.973
228.068
228.146
228.209
228.256
228.295
228.333
228.385
228.471
228.615
228.843
229.187
229.679
230.354
231.244
232.383
233.805
235.54
237.621
240.08
242.95
246.267
250.066
254.388
259.277
264.78
270.95
277.844
285.522
294.044
303.469
313.832
325.198
337.175
352.174
353.896
385.122
385.126
385.128
385.13
385.132
385.134
385.136
385.138
385.14
385.142
385.143
385.145
385.146
385.147
385.148
385.149
385.15
385.15
385.151
385.151
385.152
385.152
385.152
385.152
385.152
385.153
385.153
385.153
385.153
385.153
385.153
385.153
385.153
385.153
385.153
385.153
385.153
385.153
385.153
385.153
385.153
385.153
385.153
385.153
385.153
385.153
385.153
385.153
385.153
385.153
385.153
385.15
)
;

boundaryField
{
    frontHeated
    {
        type            fixedValue;
        value           uniform 385.15;
    }
    backOutlet
    {
        type            fixedValue;
        value           uniform 385.15;
    }
    defaultFaces
    {
        type            empty;
    }
}


// ************************************************************************* //
