/*--------------------------------*- C++ -*----------------------------------*\
  =========                 |
  \\      /  F ield         | OpenFOAM: The Open Source CFD Toolbox
   \\    /   O peration     | Website:  https://openfoam.org
    \\  /    A nd           | Version:  dev
     \\/     M anipulation  |
\*---------------------------------------------------------------------------*/
FoamFile
{
    format      ascii;
    class       volScalarField;
    location    "0.0197989";
    object      epsilon;
}
// * * * * * * * * * * * * * * * * * * * * * * * * * * * * * * * * * * * * * //

dimensions      [0 2 -3 0 0 0 0];

internalField   nonuniform List<scalar> 
100
(
1.56673
0.406324
0.187324
0.129758
0.117712
0.134815
0.212226
0.568567
3.50685
38.497
1.49277
0.663327
0.217359
0.131576
0.107253
0.0995898
0.0972344
0.096555
0.0963712
0.0963241
0.0963126
0.0963099
0.0963093
0.0963091
0.0963091
0.0963091
0.0963091
0.0963091
0.0963091
0.0963091
0.0963091
0.0963091
0.0963091
0.0963091
0.0963091
0.0963091
0.0963091
0.0963091
0.0963091
0.0963091
0.0963091
0.0963091
0.0963091
0.0963091
0.0963091
0.0963091
0.0963091
0.0963091
0.0963091
0.0963091
0.0963091
0.0963091
0.0963091
0.0963091
0.0963091
0.0963091
0.0963091
0.0963091
0.0963091
0.0963091
0.0963091
0.0963091
0.0963091
0.0963091
0.0963091
0.0963091
0.0963091
0.0963091
0.0963091
0.0963091
0.0963091
0.0963091
0.0963091
0.0963091
0.0963091
0.0963091
0.0963091
0.0963091
0.0963091
0.0963091
0.0963091
0.0963091
0.0963091
0.0963091
0.0963091
0.0963091
0.0963091
0.0963091
0.0963093
0.0963102
0.096314
0.0963302
0.0963971
0.0966604
0.0976408
0.101065
0.11236
0.149685
0.295788
1.16693
)
;

boundaryField
{
    frontHeated
    {
        type            epsilonWallFunction;
        value           uniform 1.56673;
    }
    backOutlet
    {
        type            inletOutlet;
        inletValue      uniform 0.1;
        value           uniform 1.16693;
    }
    defaultFaces
    {
        type            empty;
    }
}


// ************************************************************************* //
