/*--------------------------------*- C++ -*----------------------------------*\
  =========                 |
  \\      /  F ield         | OpenFOAM: The Open Source CFD Toolbox
   \\    /   O peration     | Website:  https://openfoam.org
    \\  /    A nd           | Version:  dev
     \\/     M anipulation  |
\*---------------------------------------------------------------------------*/
FoamFile
{
    format      ascii;
    class       volScalarField;
    location    "0.0197989";
    object      T;
}
// * * * * * * * * * * * * * * * * * * * * * * * * * * * * * * * * * * * * * //

dimensions      [0 0 0 1 0 0 0];

internalField   nonuniform List<scalar> 
100
(
378.285
378.18
378.171
378.17
378.172
378.179
378.2
378.284
378.856
385.142
385.144
385.149
385.15
385.15
385.15
385.15
385.15
385.15
385.15
385.15
385.15
385.15
385.15
385.15
385.15
385.15
385.15
385.15
385.15
385.15
385.15
385.15
385.15
385.15
385.15
385.15
385.15
385.15
385.15
385.15
385.15
385.15
385.15
385.15
385.15
385.15
385.15
385.15
385.15
385.15
385.15
385.15
385.15
385.15
385.15
385.15
385.15
385.15
385.15
385.15
385.15
385.15
385.15
385.15
385.15
385.15
385.15
385.15
385.15
385.15
385.15
385.15
385.15
385.15
385.15
385.15
385.15
385.15
385.15
385.15
385.15
385.15
385.15
385.15
385.15
385.15
385.15
385.15
385.15
385.15
385.15
385.15
385.15
385.15
385.15
385.15
385.15
385.15
385.15
385.15
)
;

boundaryField
{
    frontHeated
    {
        type            fixedValue;
        value           uniform 385.15;
    }
    backOutlet
    {
        type            fixedValue;
        value           uniform 385.15;
    }
    defaultFaces
    {
        type            empty;
    }
}


// ************************************************************************* //
