/*--------------------------------*- C++ -*----------------------------------*\
  =========                 |
  \\      /  F ield         | OpenFOAM: The Open Source CFD Toolbox
   \\    /   O peration     | Website:  https://openfoam.org
    \\  /    A nd           | Version:  dev
     \\/     M anipulation  |
\*---------------------------------------------------------------------------*/
FoamFile
{
    format      ascii;
    class       volScalarField;
    location    "0.218975";
    object      rhoSmear;
}
// * * * * * * * * * * * * * * * * * * * * * * * * * * * * * * * * * * * * * //

dimensions      [1 -3 -1 0 0 0 0];

internalField   nonuniform List<scalar> 
100
(
1.80436e-17
2.00485e-17
2.4281e-17
3.12113e-17
4.16096e-17
5.66311e-17
7.7945e-17
1.07919e-16
1.49885e-16
2.08504e-16
2.90291e-16
4.04332e-16
5.63299e-16
7.84855e-16
1.09362e-15
1.52389e-15
2.12349e-15
2.95903e-15
4.12335e-15
5.74581e-15
8.00671e-15
1.11572e-14
1.55475e-14
2.16652e-14
3.01901e-14
4.20695e-14
5.86233e-14
8.16909e-14
1.13835e-13
1.58628e-13
2.21046e-13
3.08024e-13
4.29228e-13
5.98123e-13
8.33477e-13
1.16144e-12
1.61845e-12
2.25529e-12
3.14271e-12
4.37933e-12
6.10254e-12
8.50381e-12
1.18499e-11
1.65127e-11
2.30103e-11
3.20645e-11
4.46815e-11
6.22631e-11
8.67628e-11
1.20903e-10
1.68476e-10
2.3477e-10
3.27149e-10
4.55877e-10
6.35259e-10
8.85225e-10
1.23355e-09
1.71893e-09
2.39531e-09
3.33784e-09
4.65123e-09
6.48143e-09
9.03179e-09
1.25857e-08
1.7538e-08
2.44389e-08
3.40553e-08
4.74556e-08
6.61288e-08
9.21496e-08
1.28409e-07
1.78937e-07
2.49346e-07
3.4746e-07
4.84181e-07
6.747e-07
9.40186e-07
1.31014e-06
1.82566e-06
2.54403e-06
3.54507e-06
4.94001e-06
6.88384e-06
9.59254e-06
1.33671e-05
1.86268e-05
2.59563e-05
3.61697e-05
5.0402e-05
7.02346e-05
9.78709e-05
0
0
0
0
0
0
0
0
0
)
;

boundaryField
{
    frontHeated
    {
        type            zeroGradient;
    }
    backOutlet
    {
        type            zeroGradient;
    }
    defaultFaces
    {
        type            empty;
    }
}


// ************************************************************************* //
