/*--------------------------------*- C++ -*----------------------------------*\
  =========                 |
  \\      /  F ield         | OpenFOAM: The Open Source CFD Toolbox
   \\    /   O peration     | Website:  https://openfoam.org
    \\  /    A nd           | Version:  dev
     \\/     M anipulation  |
\*---------------------------------------------------------------------------*/
FoamFile
{
    format      ascii;
    class       volScalarField;
    location    "0.213743";
    object      rhoSmear;
}
// * * * * * * * * * * * * * * * * * * * * * * * * * * * * * * * * * * * * * //

dimensions      [1 -3 -1 0 0 0 0];

internalField   nonuniform List<scalar> 
100
(
4.42082e-17
4.91203e-17
5.94901e-17
7.64699e-17
1.01946e-16
1.3875e-16
1.90971e-16
2.6441e-16
3.67229e-16
5.10851e-16
7.11234e-16
9.90643e-16
1.38012e-15
1.92295e-15
2.67944e-15
3.73364e-15
5.2027e-15
7.24983e-15
1.01025e-14
1.40777e-14
1.9617e-14
2.7336e-14
3.80924e-14
5.30812e-14
7.3968e-14
1.03073e-13
1.43631e-13
2.00148e-13
2.78904e-13
3.88649e-13
5.41578e-13
7.54681e-13
1.05164e-12
1.46544e-12
2.04208e-12
2.84561e-12
3.96532e-12
5.52562e-12
7.69988e-12
1.07297e-11
1.49517e-11
2.08349e-11
2.90332e-11
4.04574e-11
5.63769e-11
7.85604e-11
1.09473e-10
1.52549e-10
2.12575e-10
2.96221e-10
4.12779e-10
5.75203e-10
8.01537e-10
1.11693e-09
1.55643e-09
2.16886e-09
3.02228e-09
4.21151e-09
5.86869e-09
8.17794e-09
1.13958e-08
1.588e-08
2.21285e-08
3.08358e-08
4.29693e-08
5.98771e-08
8.3438e-08
1.1627e-07
1.6202e-07
2.25773e-07
3.14612e-07
4.38408e-07
6.10915e-07
8.51302e-07
1.18628e-06
1.65306e-06
2.30352e-06
3.20993e-06
4.47299e-06
6.23306e-06
8.68568e-06
1.21034e-05
1.68659e-05
2.35024e-05
3.27503e-05
4.56371e-05
6.35947e-05
8.86184e-05
0.000123489
0
0
0
0
0
0
0
0
0
0
0
)
;

boundaryField
{
    frontHeated
    {
        type            zeroGradient;
    }
    backOutlet
    {
        type            zeroGradient;
    }
    defaultFaces
    {
        type            empty;
    }
}


// ************************************************************************* //
