/*--------------------------------*- C++ -*----------------------------------*\
  =========                 |
  \\      /  F ield         | OpenFOAM: The Open Source CFD Toolbox
   \\    /   O peration     | Website:  https://openfoam.org
    \\  /    A nd           | Version:  dev
     \\/     M anipulation  |
\*---------------------------------------------------------------------------*/
FoamFile
{
    format      ascii;
    class       volScalarField;
    location    "0.213743";
    object      T;
}
// * * * * * * * * * * * * * * * * * * * * * * * * * * * * * * * * * * * * * //

dimensions      [0 0 0 1 0 0 0];

internalField   nonuniform List<scalar> 
100
(
239.164
207.311
198.021
194.341
192.617
191.72
191.223
190.941
190.783
190.701
190.669
190.671
190.696
190.737
190.788
190.847
190.91
190.975
191.04
191.104
191.165
191.223
191.277
191.327
191.373
191.416
191.456
191.496
191.535
191.578
191.625
191.68
191.747
191.829
191.93
192.055
192.208
192.395
192.62
192.888
193.206
193.579
194.011
194.509
195.079
195.725
196.453
197.269
198.177
199.185
200.297
201.518
202.855
204.313
205.899
207.618
209.476
211.48
213.636
215.95
218.427
221.072
223.889
226.884
230.061
233.431
237.006
240.805
244.847
249.154
253.745
258.633
263.824
269.314
275.086
281.117
287.374
293.819
300.41
307.103
313.838
320.526
327.213
331.66
339.088
352.501
368.063
380.613
385.118
385.122
385.124
385.126
385.128
385.13
385.132
385.134
385.135
385.137
385.138
385.05
)
;

boundaryField
{
    frontHeated
    {
        type            fixedValue;
        value           uniform 385.15;
    }
    backOutlet
    {
        type            fixedValue;
        value           uniform 385.15;
    }
    defaultFaces
    {
        type            empty;
    }
}


// ************************************************************************* //
