/*--------------------------------*- C++ -*----------------------------------*\
  =========                 |
  \\      /  F ield         | OpenFOAM: The Open Source CFD Toolbox
   \\    /   O peration     | Website:  https://openfoam.org
    \\  /    A nd           | Version:  dev
     \\/     M anipulation  |
\*---------------------------------------------------------------------------*/
FoamFile
{
    format      ascii;
    class       volScalarField;
    location    "0.213743";
    object      thermo:rho;
}
// * * * * * * * * * * * * * * * * * * * * * * * * * * * * * * * * * * * * * //

dimensions      [1 -3 0 0 0 0 0];

internalField   nonuniform List<scalar> 
100
(
0.0905195
0.104427
0.109327
0.111397
0.112394
0.11292
0.113213
0.113381
0.113475
0.113523
0.113542
0.113541
0.113526
0.113502
0.113471
0.113436
0.113399
0.113361
0.113322
0.113284
0.113248
0.113214
0.113182
0.113152
0.113125
0.113099
0.113075
0.113052
0.113029
0.113004
0.112976
0.112943
0.112904
0.112856
0.112796
0.112723
0.112633
0.112524
0.112393
0.112236
0.112051
0.111836
0.111586
0.111301
0.110976
0.110609
0.1102
0.109744
0.109241
0.108688
0.108085
0.10743
0.106722
0.10596
0.105144
0.104273
0.103348
0.102369
0.101336
0.10025
0.0991133
0.0979274
0.0966951
0.095419
0.0941012
0.0927428
0.0913437
0.0899028
0.0884186
0.0868902
0.0853181
0.0837055
0.0820585
0.0803859
0.0786991
0.0770108
0.075334
0.0736815
0.0720649
0.0704944
0.0689815
0.0675422
0.0661619
0.0652747
0.0638449
0.0614156
0.0588188
0.0568795
0.0472082
430.223
887.761
920.42
949.132
963.42
948.074
948.43
949.525
949.413
924.325
815.942
)
;

boundaryField
{
    frontHeated
    {
        type            calculated;
        value           uniform 0.0562093;
    }
    backOutlet
    {
        type            calculated;
        value           uniform 815.914;
    }
    defaultFaces
    {
        type            empty;
    }
}


// ************************************************************************* //
