/*--------------------------------*- C++ -*----------------------------------*\
  =========                 |
  \\      /  F ield         | OpenFOAM: The Open Source CFD Toolbox
   \\    /   O peration     | Website:  https://openfoam.org
    \\  /    A nd           | Version:  dev
     \\/     M anipulation  |
\*---------------------------------------------------------------------------*/
FoamFile
{
    format      ascii;
    class       volScalarField;
    location    "0.186044";
    object      p_rgh;
}
// * * * * * * * * * * * * * * * * * * * * * * * * * * * * * * * * * * * * * //

dimensions      [1 -1 -2 0 0 0 0];

internalField   nonuniform List<scalar> 
100
(
10000.4
10000.5
10000.5
10000.5
10000.5
10000.5
10000.5
10000.5
10000.5
10000.5
10000.5
10000.5
10000.5
10000.5
10000.5
10000.5
10000.5
10000.5
10000.5
10000.5
10000.5
10000.5
10000.5
10000.5
10000.5
10000.5
10000.5
10000.5
10000.5
10000.5
10000.5
10000.5
10000.5
10000.5
10000.5
10000.5
10000.5
10000.5
10000.5
10000.5
10000.5
10000.5
10000.5
10000.5
10000.5
10000.5
10000.5
10000.5
10000.5
10000.5
10000.5
10000.5
10000.5
10000.5
10000.5
10000.5
10000.4
10000.4
10000.4
10000.4
10000.4
10000.4
10000.4
10000.4
10000.4
10000.4
10000.4
10000.4
10000.3
10000.3
10000.3
10000.3
10000.3
10000.3
10000.3
10000.2
12491.6
14304.4
14493.4
14601.4
14663.4
14699.8
14721
14733.8
14741.6
14746.4
14750.3
14752.6
14754.5
14755.5
14754.1
14754.1
14754.2
14754.2
14754.9
14781.5
14742
14741.2
14748.7
14748.6
)
;

boundaryField
{
    frontHeated
    {
        type            fixedFluxPressure;
        gradient        uniform -34.4722;
        value           uniform 10000.3;
    }
    backOutlet
    {
        type            prghTotalPressure;
        rho             thermo:rho;
        psi             none;
        gamma           1;
        p0              uniform 0;
        value           uniform 4748.64;
        rho             thermo:rho;
    }
    defaultFaces
    {
        type            empty;
    }
}


// ************************************************************************* //
