/*--------------------------------*- C++ -*----------------------------------*\
  =========                 |
  \\      /  F ield         | OpenFOAM: The Open Source CFD Toolbox
   \\    /   O peration     | Website:  https://openfoam.org
    \\  /    A nd           | Version:  dev
     \\/     M anipulation  |
\*---------------------------------------------------------------------------*/
FoamFile
{
    format      ascii;
    class       volScalarField;
    location    "0.243122";
    object      thermo:rho;
}
// * * * * * * * * * * * * * * * * * * * * * * * * * * * * * * * * * * * * * //

dimensions      [1 -3 0 0 0 0 0];

internalField   nonuniform List<scalar> 
100
(
0.0895175
0.105865
0.112314
0.115236
0.116708
0.117513
0.117978
0.118258
0.118429
0.118533
0.118594
0.118625
0.118636
0.118632
0.118618
0.118597
0.11857
0.11854
0.118508
0.118474
0.118441
0.118407
0.118374
0.118343
0.118314
0.118286
0.11826
0.118236
0.118213
0.118192
0.118171
0.118151
0.11813
0.118108
0.118083
0.118054
0.11802
0.117979
0.11793
0.117871
0.1178
0.117716
0.117616
0.117498
0.117361
0.117202
0.11702
0.116812
0.116577
0.116313
0.116018
0.11569
0.115329
0.114932
0.114498
0.114027
0.113517
0.112968
0.112378
0.111747
0.111075
0.110361
0.109606
0.108809
0.107971
0.107091
0.106172
0.105214
0.104217
0.103184
0.102116
0.101012
0.0998758
0.0987062
0.0975041
0.09627
0.0950045
0.0937084
0.0923832
0.0910311
0.0896552
0.0882594
0.0868487
0.0854284
0.0840043
0.0825836
0.0811748
0.0797868
0.0784217
0.0770737
0.0757367
0.0744009
0.0730509
0.0716779
0.0702635
0.0688773
0.0677542
4.67548
27.0804
27.2027
)
;

boundaryField
{
    frontHeated
    {
        type            calculated;
        value           uniform 0.0562093;
    }
    backOutlet
    {
        type            calculated;
        value           uniform 27.0791;
    }
    defaultFaces
    {
        type            empty;
    }
}


// ************************************************************************* //
