/*--------------------------------*- C++ -*----------------------------------*\
  =========                 |
  \\      /  F ield         | OpenFOAM: The Open Source CFD Toolbox
   \\    /   O peration     | Website:  https://openfoam.org
    \\  /    A nd           | Version:  dev
     \\/     M anipulation  |
\*---------------------------------------------------------------------------*/
FoamFile
{
    format      ascii;
    class       volScalarField;
    location    "0.220988";
    object      thermo:rho;
}
// * * * * * * * * * * * * * * * * * * * * * * * * * * * * * * * * * * * * * //

dimensions      [1 -3 0 0 0 0 0];

internalField   nonuniform List<scalar> 
100
(
0.0902665
0.104829
0.110105
0.112371
0.113475
0.114061
0.114392
0.114583
0.114694
0.114754
0.114782
0.114787
0.114778
0.114758
0.11473
0.114698
0.114662
0.114625
0.114587
0.114549
0.114512
0.114477
0.114444
0.114413
0.114384
0.114357
0.114332
0.114308
0.114284
0.114261
0.114235
0.114206
0.114173
0.114134
0.114086
0.114027
0.113955
0.113868
0.113763
0.113638
0.113489
0.113314
0.113111
0.112876
0.112608
0.112303
0.111961
0.111578
0.111153
0.110683
0.110168
0.109606
0.108995
0.108334
0.107624
0.106863
0.10605
0.105186
0.104271
0.103304
0.102287
0.101221
0.100108
0.0989484
0.0977456
0.0965013
0.0952167
0.0938928
0.0925294
0.0911258
0.0896815
0.0881966
0.0866722
0.0851118
0.0835207
0.0819065
0.0802784
0.0786469
0.0770229
0.0754173
0.0738398
0.0723064
0.0707952
0.0694228
0.0681726
0.0668168
0.065165
0.0632063
0.0611805
0.0594799
0.058176
0.0550798
281.029
887.313
930.962
911.941
894.055
894.054
857.429
758.559
)
;

boundaryField
{
    frontHeated
    {
        type            calculated;
        value           uniform 0.0562093;
    }
    backOutlet
    {
        type            calculated;
        value           uniform 758.511;
    }
    defaultFaces
    {
        type            empty;
    }
}


// ************************************************************************* //
