/*--------------------------------*- C++ -*----------------------------------*\
  =========                 |
  \\      /  F ield         | OpenFOAM: The Open Source CFD Toolbox
   \\    /   O peration     | Website:  https://openfoam.org
    \\  /    A nd           | Version:  dev
     \\/     M anipulation  |
\*---------------------------------------------------------------------------*/
FoamFile
{
    format      ascii;
    class       volScalarField;
    location    "0.110504";
    object      p;
}
// * * * * * * * * * * * * * * * * * * * * * * * * * * * * * * * * * * * * * //

dimensions      [1 -1 -2 0 0 0 0];

internalField   nonuniform List<scalar> 
100
(
15468.3
15468.3
15468.3
15468.3
15468.3
15468.3
15468.3
15468.3
15468.3
15468.3
15468.3
15468.3
15468.3
15468.3
15468.3
15468.3
15468.3
15468.3
15468.3
15468.3
15468.2
15468.2
15468.2
15468.2
15468.2
15468.2
15468.2
15468.1
15468.1
15468.1
15468.1
15468
15468
15467.9
15467.9
15467.8
15467.8
15467.7
15467.7
15467.6
15467.3
15467.6
15455.6
15132.2
14943.6
14838.2
14727.1
14607.7
14492.3
14377.8
14262.9
14147.7
14032.6
13917.3
13801.8
13686.1
13570.2
13453.9
13337.4
13220.6
13103.5
12986
12868.1
12749.9
12631.4
12512.5
12393.4
12273.9
12154.3
12034.4
11914.4
11794.2
11673.9
11553.5
11433.1
11312.5
11192
11071.4
10950.7
10830
10709.4
10588.7
10468
10347.2
10226.4
10105.5
10000
10000
10000
10000
10000
10000
10000
10000
10000
10000
10000
10000
10000
10000
)
;

boundaryField
{
    frontHeated
    {
        type            calculated;
        value           uniform 15468.3;
    }
    backOutlet
    {
        type            calculated;
        value           uniform 10000;
    }
    defaultFaces
    {
        type            empty;
    }
}


// ************************************************************************* //
