/*--------------------------------*- C++ -*----------------------------------*\
  =========                 |
  \\      /  F ield         | OpenFOAM: The Open Source CFD Toolbox
   \\    /   O peration     | Website:  https://openfoam.org
    \\  /    A nd           | Version:  dev
     \\/     M anipulation  |
\*---------------------------------------------------------------------------*/
FoamFile
{
    format      ascii;
    class       volScalarField;
    location    "0.110504";
    object      p_rgh;
}
// * * * * * * * * * * * * * * * * * * * * * * * * * * * * * * * * * * * * * //

dimensions      [1 -1 -2 0 0 0 0];

internalField   nonuniform List<scalar> 
100
(
15469
15469
15469
15469
15469
15469
15469
15469
15469
15469
15469
15469
15469
15469
15469
15469
15469
15469
15469
15468.9
15468.9
15468.9
15468.9
15468.9
15468.9
15468.8
15468.8
15468.8
15468.8
15468.7
15468.7
15468.6
15468.6
15468.5
15468.5
15468.4
15468.3
15468.2
15468.2
15468.1
15467.7
15468
17643.6
19442.1
19448.1
19452.2
19402.9
19318.3
19222.5
19119.2
19010.5
18898.8
18785.7
18671.5
18556.7
18441.3
18325.6
18209.5
18093
17976.2
17859.1
17741.6
17623.8
17505.6
17387
17268.2
17149
17029.6
16909.9
16790.1
16670
16549.9
16429.6
16309.2
16188.7
16068.2
15947.6
15827
15706.4
15585.7
15465
15344.3
15223.6
15102.9
14982
14861.2
14755.7
14755.7
14755.7
14755.7
14755.7
14755.7
14755.7
14755.7
14755.7
14755.7
14755.7
14755.7
14755.7
14755.7
)
;

boundaryField
{
    frontHeated
    {
        type            fixedFluxPressure;
        gradient        uniform -46.7765;
        value           uniform 15468.8;
    }
    backOutlet
    {
        type            prghTotalPressure;
        rho             thermo:rho;
        psi             none;
        gamma           1;
        p0              uniform 0;
        value           uniform 4755.66;
        rho             thermo:rho;
    }
    defaultFaces
    {
        type            empty;
    }
}


// ************************************************************************* //
