/*--------------------------------*- C++ -*----------------------------------*\
  =========                 |
  \\      /  F ield         | OpenFOAM: The Open Source CFD Toolbox
   \\    /   O peration     | Website:  https://openfoam.org
    \\  /    A nd           | Version:  dev
     \\/     M anipulation  |
\*---------------------------------------------------------------------------*/
FoamFile
{
    format      ascii;
    class       volScalarField;
    location    "0.104931";
    object      T;
}
// * * * * * * * * * * * * * * * * * * * * * * * * * * * * * * * * * * * * * //

dimensions      [0 0 0 1 0 0 0];

internalField   nonuniform List<scalar> 
100
(
378.53
378.231
378.179
378.167
378.17
378.185
378.223
378.329
378.813
385.14
385.146
385.149
385.149
385.15
385.15
385.15
385.15
385.15
385.15
385.15
385.15
385.15
385.15
385.15
385.15
385.15
385.15
385.15
385.15
385.15
385.15
385.15
385.15
385.15
385.15
385.15
385.15
385.15
385.15
385.15
385.15
385.15
385.15
385.15
385.15
385.15
385.15
385.15
385.15
385.15
385.15
385.15
385.15
385.15
385.15
385.15
385.15
385.15
385.15
385.15
385.15
385.15
385.15
385.15
385.15
385.15
385.15
385.15
385.15
385.15
385.15
385.15
385.15
385.15
385.15
385.15
385.15
385.15
385.15
385.15
385.15
385.15
385.15
385.15
385.15
385.15
385.15
385.15
385.15
385.15
385.15
385.15
385.15
385.15
385.15
385.15
385.15
385.15
385.15
385.15
)
;

boundaryField
{
    frontHeated
    {
        type            fixedValue;
        value           uniform 385.15;
    }
    backOutlet
    {
        type            fixedValue;
        value           uniform 385.15;
    }
    defaultFaces
    {
        type            empty;
    }
}


// ************************************************************************* //
