/*--------------------------------*- C++ -*----------------------------------*\
  =========                 |
  \\      /  F ield         | OpenFOAM: The Open Source CFD Toolbox
   \\    /   O peration     | Website:  https://openfoam.org
    \\  /    A nd           | Version:  dev
     \\/     M anipulation  |
\*---------------------------------------------------------------------------*/
FoamFile
{
    format      ascii;
    class       volVectorField;
    location    "0.198275";
    object      U;
}
// * * * * * * * * * * * * * * * * * * * * * * * * * * * * * * * * * * * * * //

dimensions      [0 1 -1 0 0 0 0];

internalField   nonuniform List<vector> 
100
(
(0.0368631 0 0)
(0.0952137 0 0)
(0.146499 0 0)
(0.195933 0 0)
(0.245315 0 0)
(0.294876 0 0)
(0.344494 0 0)
(0.394093 0 0)
(0.443667 0 0)
(0.493231 0 0)
(0.542797 0 0)
(0.592371 0 0)
(0.641954 0 0)
(0.691552 0 0)
(0.741171 0 0)
(0.79082 0 0)
(0.840507 0 0)
(0.890241 0 0)
(0.940028 0 0)
(0.989874 0 0)
(1.03978 0 0)
(1.08975 0 0)
(1.13978 0 0)
(1.18986 0 0)
(1.23997 0 0)
(1.2901 0 0)
(1.34022 0 0)
(1.39029 0 0)
(1.44027 0 0)
(1.49009 0 0)
(1.53969 0 0)
(1.58899 0 0)
(1.6379 0 0)
(1.68632 0 0)
(1.73415 0 0)
(1.78131 0 0)
(1.82771 0 0)
(1.8732 0 0)
(1.9176 0 0)
(1.96078 0 0)
(2.00261 0 0)
(2.04303 0 0)
(2.08201 0 0)
(2.11949 0 0)
(2.1554 0 0)
(2.18966 0 0)
(2.22218 0 0)
(2.25289 0 0)
(2.28173 0 0)
(2.30864 0 0)
(2.33359 0 0)
(2.35654 0 0)
(2.37748 0 0)
(2.39638 0 0)
(2.41324 0 0)
(2.42811 0 0)
(2.44104 0 0)
(2.45201 0 0)
(2.46108 0 0)
(2.46868 0 0)
(2.47546 0 0)
(2.48193 0 0)
(2.48818 0 0)
(2.49392 0 0)
(2.49834 0 0)
(2.49966 0 0)
(2.49464 0 0)
(2.47906 0 0)
(2.44924 0 0)
(2.40409 0 0)
(2.34648 0 0)
(2.28352 0 0)
(2.2256 0 0)
(2.18475 0 0)
(2.1726 0 0)
(2.19782 0 0)
(2.26591 0 0)
(2.3775 0 0)
(2.51749 0 0)
(2.68504 0 0)
(2.81925 0 0)
(4.56692 0 0)
(4.58415 0 0)
(4.61214 0 0)
(4.64404 0 0)
(4.65707 0 0)
(4.65745 0 0)
(4.65424 0 0)
(4.65043 0 0)
(4.64757 0 0)
(4.64529 0 0)
(4.64331 0 0)
(4.64118 0 0)
(4.63884 0 0)
(4.63512 0 0)
(4.63506 0 0)
(4.61236 0 0)
(4.70062 0 0)
(4.2293 0 0)
(6.76888 0 0)
)
;

boundaryField
{
    frontHeated
    {
        type            noSlip;
    }
    backOutlet
    {
        type            pressureInletOutletVelocity;
        value           uniform (6.76888 0 0);
    }
    defaultFaces
    {
        type            empty;
    }
}


// ************************************************************************* //
