/*--------------------------------*- C++ -*----------------------------------*\
  =========                 |
  \\      /  F ield         | OpenFOAM: The Open Source CFD Toolbox
   \\    /   O peration     | Website:  https://openfoam.org
    \\  /    A nd           | Version:  dev
     \\/     M anipulation  |
\*---------------------------------------------------------------------------*/
FoamFile
{
    format      ascii;
    class       volScalarField;
    location    "0.24351";
    object      T;
}
// * * * * * * * * * * * * * * * * * * * * * * * * * * * * * * * * * * * * * //

dimensions      [0 0 0 1 0 0 0];

internalField   nonuniform List<scalar> 
100
(
241.893
204.486
192.709
187.806
185.427
184.153
183.423
182.986
182.72
182.559
182.464
182.416
182.398
182.403
182.424
182.456
182.497
182.543
182.592
182.643
182.695
182.746
182.796
182.843
182.889
182.931
182.971
183.007
183.042
183.074
183.105
183.136
183.167
183.201
183.239
183.283
183.334
183.396
183.47
183.56
183.667
183.796
183.949
184.13
184.341
184.587
184.869
185.193
185.56
185.975
186.441
186.961
187.538
188.177
188.879
189.648
190.488
191.402
192.393
193.464
194.619
195.86
197.192
198.616
200.137
201.758
203.48
205.307
207.242
209.287
211.445
213.72
216.115
218.636
221.288
224.078
227.012
230.098
233.34
236.743
240.31
244.039
247.929
251.975
256.166
260.487
264.915
269.427
274.021
278.722
283.556
288.549
293.741
299.176
304.883
311.152
313.799
384.148
384.852
361.684
)
;

boundaryField
{
    frontHeated
    {
        type            fixedValue;
        value           uniform 385.15;
    }
    backOutlet
    {
        type            fixedValue;
        value           uniform 385.15;
    }
    defaultFaces
    {
        type            empty;
    }
}


// ************************************************************************* //
