/*--------------------------------*- C++ -*----------------------------------*\
  =========                 |
  \\      /  F ield         | OpenFOAM: The Open Source CFD Toolbox
   \\    /   O peration     | Website:  https://openfoam.org
    \\  /    A nd           | Version:  dev
     \\/     M anipulation  |
\*---------------------------------------------------------------------------*/
FoamFile
{
    format      ascii;
    class       volScalarField;
    location    "0.229554";
    object      rhoSmear;
}
// * * * * * * * * * * * * * * * * * * * * * * * * * * * * * * * * * * * * * //

dimensions      [1 -3 -1 0 0 0 0];

internalField   nonuniform List<scalar> 
100
(
4.86069e-18
5.40077e-18
6.54093e-18
8.40787e-18
1.1209e-17
1.52556e-17
2.09972e-17
2.90719e-17
4.03768e-17
5.6168e-17
7.82001e-17
1.08921e-16
1.51744e-16
2.11428e-16
2.94604e-16
4.10514e-16
5.72036e-16
7.97118e-16
1.11077e-15
1.54784e-15
2.15689e-15
3.0056e-15
4.18826e-15
5.83628e-15
8.13278e-15
1.13329e-14
1.57923e-14
2.20063e-14
3.06655e-14
4.2732e-14
5.95465e-14
8.29772e-14
1.15628e-13
1.61126e-13
2.24526e-13
3.12875e-13
4.35987e-13
6.07542e-13
8.46601e-13
1.17973e-12
1.64393e-12
2.2908e-12
3.1922e-12
4.44829e-12
6.19863e-12
8.63772e-12
1.20365e-11
1.67728e-11
2.33726e-11
3.25694e-11
4.53851e-11
6.32435e-11
8.8129e-11
1.22807e-10
1.71129e-10
2.38467e-10
3.323e-10
4.63056e-10
6.45262e-10
8.99164e-10
1.25297e-09
1.746e-09
2.43303e-09
3.3904e-09
4.72447e-09
6.58349e-09
9.17401e-09
1.27839e-08
1.78141e-08
2.48238e-08
3.45916e-08
4.82029e-08
6.71701e-08
9.36007e-08
1.30431e-07
1.81754e-07
2.53272e-07
3.52932e-07
4.91805e-07
6.85324e-07
9.5499e-07
1.33077e-06
1.85441e-06
2.58409e-06
3.6009e-06
5.0178e-06
6.99224e-06
9.74359e-06
1.35776e-05
1.89202e-05
2.6365e-05
3.67393e-05
5.11957e-05
7.13405e-05
9.94121e-05
0
0
0
0
0
)
;

boundaryField
{
    frontHeated
    {
        type            zeroGradient;
    }
    backOutlet
    {
        type            zeroGradient;
    }
    defaultFaces
    {
        type            empty;
    }
}


// ************************************************************************* //
