/*--------------------------------*- C++ -*----------------------------------*\
  =========                 |
  \\      /  F ield         | OpenFOAM: The Open Source CFD Toolbox
   \\    /   O peration     | Website:  https://openfoam.org
    \\  /    A nd           | Version:  dev
     \\/     M anipulation  |
\*---------------------------------------------------------------------------*/
FoamFile
{
    format      ascii;
    class       volScalarField;
    location    "0.229554";
    object      T;
}
// * * * * * * * * * * * * * * * * * * * * * * * * * * * * * * * * * * * * * //

dimensions      [0 0 0 1 0 0 0];

internalField   nonuniform List<scalar> 
100
(
240.656
205.687
195.078
190.766
188.71
187.624
187.011
186.653
186.441
186.32
186.257
186.234
186.238
186.261
186.299
186.345
186.398
186.455
186.514
186.574
186.632
186.689
186.744
186.796
186.845
186.89
186.932
186.972
187.01
187.048
187.087
187.128
187.173
187.225
187.287
187.361
187.45
187.558
187.689
187.846
188.034
188.255
188.516
188.819
189.169
189.57
190.027
190.544
191.126
191.776
192.499
193.3
194.182
195.15
196.208
197.361
198.612
199.968
201.432
203.008
204.702
206.519
208.461
210.535
212.742
215.089
217.577
220.213
223.002
225.951
229.07
232.371
235.864
239.563
243.478
247.617
251.986
256.583
261.403
266.436
271.668
277.068
282.636
288.328
294.029
299.684
305.439
311.634
318.585
326.703
334.318
343.186
353.856
357.621
385.093
385.119
385.122
385.124
385.126
384.753
)
;

boundaryField
{
    frontHeated
    {
        type            fixedValue;
        value           uniform 385.15;
    }
    backOutlet
    {
        type            fixedValue;
        value           uniform 385.15;
    }
    defaultFaces
    {
        type            empty;
    }
}


// ************************************************************************* //
