/*--------------------------------*- C++ -*----------------------------------*\
  =========                 |
  \\      /  F ield         | OpenFOAM: The Open Source CFD Toolbox
   \\    /   O peration     | Website:  https://openfoam.org
    \\  /    A nd           | Version:  dev
     \\/     M anipulation  |
\*---------------------------------------------------------------------------*/
FoamFile
{
    format      ascii;
    class       volVectorField;
    location    "0.229554";
    object      U;
}
// * * * * * * * * * * * * * * * * * * * * * * * * * * * * * * * * * * * * * //

dimensions      [0 1 -1 0 0 0 0];

internalField   nonuniform List<vector> 
100
(
(0.0307836 0 0)
(0.0816696 0 0)
(0.12559 0 0)
(0.16678 0 0)
(0.207387 0 0)
(0.248085 0 0)
(0.288945 0 0)
(0.329895 0 0)
(0.370877 0 0)
(0.411864 0 0)
(0.452852 0 0)
(0.493842 0 0)
(0.534839 0 0)
(0.575843 0 0)
(0.616858 0 0)
(0.65789 0 0)
(0.698944 0 0)
(0.740028 0 0)
(0.781148 0 0)
(0.822314 0 0)
(0.86353 0 0)
(0.904804 0 0)
(0.946139 0 0)
(0.987536 0 0)
(1.029 0 0)
(1.07051 0 0)
(1.11208 0 0)
(1.15368 0 0)
(1.1953 0 0)
(1.23691 0 0)
(1.27848 0 0)
(1.31998 0 0)
(1.36135 0 0)
(1.40254 0 0)
(1.44348 0 0)
(1.4841 0 0)
(1.52432 0 0)
(1.56405 0 0)
(1.6032 0 0)
(1.64167 0 0)
(1.67937 0 0)
(1.71619 0 0)
(1.752 0 0)
(1.78668 0 0)
(1.82012 0 0)
(1.8522 0 0)
(1.88283 0 0)
(1.91195 0 0)
(1.93948 0 0)
(1.96537 0 0)
(1.98956 0 0)
(2.01198 0 0)
(2.03259 0 0)
(2.05133 0 0)
(2.06815 0 0)
(2.08301 0 0)
(2.09589 0 0)
(2.10678 0 0)
(2.11565 0 0)
(2.12251 0 0)
(2.12738 0 0)
(2.13029 0 0)
(2.13127 0 0)
(2.13037 0 0)
(2.1277 0 0)
(2.12341 0 0)
(2.1177 0 0)
(2.11081 0 0)
(2.10292 0 0)
(2.09415 0 0)
(2.08451 0 0)
(2.07376 0 0)
(2.06142 0 0)
(2.04664 0 0)
(2.02827 0 0)
(2.00502 0 0)
(1.97578 0 0)
(1.93999 0 0)
(1.89811 0 0)
(1.85149 0 0)
(1.80339 0 0)
(1.75794 0 0)
(1.71749 0 0)
(1.6884 0 0)
(1.68184 0 0)
(1.70168 0 0)
(1.73713 0 0)
(1.76896 0 0)
(1.7873 0 0)
(1.85322 0 0)
(1.97602 0 0)
(2.10616 0 0)
(2.36907 0 0)
(2.54993 0 0)
(3.80225 0 0)
(4.53526 0 0)
(4.58936 0 0)
(4.79726 0 0)
(4.06607 0 0)
(7.27056 0 0)
)
;

boundaryField
{
    frontHeated
    {
        type            noSlip;
    }
    backOutlet
    {
        type            pressureInletOutletVelocity;
        value           uniform (7.27056 0 0);
    }
    defaultFaces
    {
        type            empty;
    }
}


// ************************************************************************* //
