/*--------------------------------*- C++ -*----------------------------------*\
  =========                 |
  \\      /  F ield         | OpenFOAM: The Open Source CFD Toolbox
   \\    /   O peration     | Website:  https://openfoam.org
    \\  /    A nd           | Version:  dev
     \\/     M anipulation  |
\*---------------------------------------------------------------------------*/
FoamFile
{
    format      ascii;
    class       volScalarField;
    location    "0.0820088";
    object      p;
}
// * * * * * * * * * * * * * * * * * * * * * * * * * * * * * * * * * * * * * //

dimensions      [1 -1 -2 0 0 0 0];

internalField   nonuniform List<scalar> 
100
(
23360.8
23360.8
23360.8
23360.8
23360.8
23360.8
23360.8
23360.7
23360.7
23360.7
23360.7
23360.7
23360.6
23360.6
23360.6
23360.5
23360.5
23360.5
23360.4
23360.4
23360.3
23360.2
23360.2
23360.1
23360
23359.9
23359.8
23359.7
23359.4
23359.4
23466.3
23018.7
22723.9
22523.3
22311.7
22091.9
21876.8
21662.9
21448.6
21234.3
21019.8
20804.9
20589.4
20373.2
20156.1
19938.2
19719.2
19499.3
19278.3
19056.4
18833.6
18610
18385.7
18160.8
17935.5
17709.9
17484
17257.8
17031.6
16805.1
16578.7
16352.1
16125.5
15898.9
15672.2
15445.6
15218.9
14992.2
14765.5
14538.8
14312.1
14085.4
13858.7
13632
13405.3
13178.6
12951.9
12725.2
12498.5
12271.8
12045.1
11818.4
11591.7
11365
11138.3
10911.6
10684.9
10457.7
10232.3
10004.7
10000
10000
10000
10000
10000
10000
10000
10000
10000
10000
)
;

boundaryField
{
    frontHeated
    {
        type            calculated;
        value           uniform 23360.8;
    }
    backOutlet
    {
        type            calculated;
        value           uniform 10000;
    }
    defaultFaces
    {
        type            empty;
    }
}


// ************************************************************************* //
