/*--------------------------------*- C++ -*----------------------------------*\
  =========                 |
  \\      /  F ield         | OpenFOAM: The Open Source CFD Toolbox
   \\    /   O peration     | Website:  https://openfoam.org
    \\  /    A nd           | Version:  dev
     \\/     M anipulation  |
\*---------------------------------------------------------------------------*/
FoamFile
{
    format      ascii;
    class       volScalarField;
    location    "0.0547875";
    object      p;
}
// * * * * * * * * * * * * * * * * * * * * * * * * * * * * * * * * * * * * * //

dimensions      [1 -1 -2 0 0 0 0];

internalField   nonuniform List<scalar> 
100
(
38176.3
38176.3
38176.3
38176.3
38176.2
38176.2
38176.2
38176.1
38176.1
38176
38175.9
38175.8
38175.8
38175.7
38175.6
38175.4
38175.3
38175.1
38174.9
38174.7
38179.9
37734.2
37311.6
36936.9
36561.1
36178.5
35796.7
35414.2
35030.1
34644.3
34256.4
33865.8
33472.2
33075.4
32675.4
32272.6
31867.3
31459.9
31051
30640.9
30229.9
29818.4
29406.5
28994.3
28581.9
28169.4
27756.9
27344.3
26931.6
26518.9
26106.3
25693.6
25280.9
24868.2
24455.5
24042.8
23630.1
23217.4
22804.7
22391.9
21979.2
21566.5
21153.8
20741.1
20328.4
19915.7
19503
19090.3
18677.6
18264.9
17852.2
17439.5
17026.8
16614.1
16201.4
15788.7
15376
14963.3
14550.6
14137.8
13725.1
13312.4
12899.7
12487
12074.3
11661.6
11248.8
10834.9
10421.1
10000
10000
10000
10000
10000
10000
10000
10000
10000
10000
10000
)
;

boundaryField
{
    frontHeated
    {
        type            calculated;
        value           uniform 38176.3;
    }
    backOutlet
    {
        type            calculated;
        value           uniform 10000;
    }
    defaultFaces
    {
        type            empty;
    }
}


// ************************************************************************* //
