/*--------------------------------*- C++ -*----------------------------------*\
  =========                 |
  \\      /  F ield         | OpenFOAM: The Open Source CFD Toolbox
   \\    /   O peration     | Website:  https://openfoam.org
    \\  /    A nd           | Version:  dev
     \\/     M anipulation  |
\*---------------------------------------------------------------------------*/
FoamFile
{
    format      ascii;
    class       volScalarField;
    location    "0.0547875";
    object      p_rgh;
}
// * * * * * * * * * * * * * * * * * * * * * * * * * * * * * * * * * * * * * //

dimensions      [1 -1 -2 0 0 0 0];

internalField   nonuniform List<scalar> 
100
(
38177.6
38177.6
38177.6
38177.6
38177.6
38177.6
38177.5
38177.5
38177.4
38177.4
38177.3
38177.2
38177.1
38177
38176.9
38176.7
38176.5
38176.3
38176
38175.8
38562
41932.6
41753.5
41515.8
41217.2
40878.1
40520.7
40152
39775.8
39394.3
39008.9
38619.6
38226.8
37830.5
37430.8
37028.1
36622.8
36215.5
35806.6
35396.5
34985.6
34574.1
34162.1
33750
33337.6
32925.1
32512.5
32099.9
31687.3
31274.6
30861.9
30449.2
30036.5
29623.8
29211.1
28798.4
28385.7
27973
27560.3
27147.6
26734.9
26322.2
25909.5
25496.8
25084.1
24671.4
24258.7
23846
23433.3
23020.6
22607.8
22195.1
21782.4
21369.7
20957
20544.3
20131.6
19718.9
19306.2
18893.5
18480.8
18068.1
17655.4
17242.7
16829.9
16417.2
16004.4
15590.5
15176.7
14755.7
14755.7
14755.7
14755.7
14755.7
14755.7
14755.7
14755.7
14755.7
14755.7
14755.7
)
;

boundaryField
{
    frontHeated
    {
        type            fixedFluxPressure;
        gradient        uniform -58.2771;
        value           uniform 38177.3;
    }
    backOutlet
    {
        type            prghTotalPressure;
        rho             thermo:rho;
        psi             none;
        gamma           1;
        p0              uniform 0;
        value           uniform 4755.66;
        rho             thermo:rho;
    }
    defaultFaces
    {
        type            empty;
    }
}


// ************************************************************************* //
