/*--------------------------------*- C++ -*----------------------------------*\
  =========                 |
  \\      /  F ield         | OpenFOAM: The Open Source CFD Toolbox
   \\    /   O peration     | Website:  https://openfoam.org
    \\  /    A nd           | Version:  dev
     \\/     M anipulation  |
\*---------------------------------------------------------------------------*/
FoamFile
{
    format      ascii;
    class       volScalarField;
    location    "0.167012";
    object      T;
}
// * * * * * * * * * * * * * * * * * * * * * * * * * * * * * * * * * * * * * //

dimensions      [0 0 0 1 0 0 0];

internalField   nonuniform List<scalar> 
100
(
236.687
215.601
210.177
208.176
207.287
206.855
206.643
206.552
206.531
206.555
206.607
206.676
206.756
206.842
206.928
207.012
207.091
207.164
207.229
207.286
207.337
207.381
207.423
207.467
207.517
207.58
207.664
207.777
207.93
208.134
208.399
208.738
209.163
209.687
210.322
211.08
211.974
213.016
214.219
215.595
217.155
218.914
220.884
223.078
225.511
228.197
231.151
234.39
237.93
241.788
245.98
250.525
255.421
260.718
266.371
272.273
278.438
285.083
292.55
301.169
310.991
321.86
333.453
344.832
358.414
355.08
385.121
385.124
385.126
385.128
385.13
385.132
385.133
385.135
385.137
385.139
385.14
385.142
385.143
385.144
385.145
385.146
385.147
385.148
385.149
385.15
385.15
385.151
385.151
385.151
385.152
385.152
385.152
385.152
385.153
385.153
385.153
385.153
385.153
385.151
)
;

boundaryField
{
    frontHeated
    {
        type            fixedValue;
        value           uniform 385.15;
    }
    backOutlet
    {
        type            fixedValue;
        value           uniform 385.15;
    }
    defaultFaces
    {
        type            empty;
    }
}


// ************************************************************************* //
