/*--------------------------------*- C++ -*----------------------------------*\
  =========                 |
  \\      /  F ield         | OpenFOAM: The Open Source CFD Toolbox
   \\    /   O peration     | Website:  https://openfoam.org
    \\  /    A nd           | Version:  dev
     \\/     M anipulation  |
\*---------------------------------------------------------------------------*/
FoamFile
{
    format      ascii;
    class       volScalarField;
    location    "0.167012";
    object      thermo:rho;
}
// * * * * * * * * * * * * * * * * * * * * * * * * * * * * * * * * * * * * * //

dimensions      [1 -3 0 0 0 0 0];

internalField   nonuniform List<scalar> 
100
(
0.0914669
0.100412
0.103004
0.103994
0.10444
0.104658
0.104765
0.104812
0.104822
0.10481
0.104784
0.104748
0.104708
0.104665
0.104621
0.104578
0.104538
0.104502
0.104469
0.10444
0.104415
0.104392
0.104371
0.104349
0.104324
0.104292
0.10425
0.104193
0.104117
0.104015
0.103882
0.103714
0.103503
0.103244
0.102933
0.102563
0.10213
0.101631
0.10106
0.100415
0.0996937
0.0988928
0.0980109
0.0970469
0.096
0.0948701
0.0936575
0.0923632
0.090989
0.0895372
0.0880113
0.0864147
0.0847583
0.0830361
0.0812741
0.0795122
0.0777517
0.0759394
0.0740012
0.0718834
0.069613
0.0672622
0.0649237
0.0627815
0.0604022
0.0609699
0.043519
468.488
877.524
917.054
939.501
952.289
959.597
963.79
966.203
967.598
968.408
968.879
969.155
969.317
969.413
969.469
969.503
969.523
969.535
969.541
969.545
969.548
969.549
969.55
969.55
969.551
969.551
969.552
969.551
969.551
969.551
969.551
969.55
969.541
)
;

boundaryField
{
    frontHeated
    {
        type            calculated;
        value           uniform 0.0562093;
    }
    backOutlet
    {
        type            calculated;
        value           uniform 969.541;
    }
    defaultFaces
    {
        type            empty;
    }
}


// ************************************************************************* //
