/*--------------------------------*- C++ -*----------------------------------*\
  =========                 |
  \\      /  F ield         | OpenFOAM: The Open Source CFD Toolbox
   \\    /   O peration     | Website:  https://openfoam.org
    \\  /    A nd           | Version:  dev
     \\/     M anipulation  |
\*---------------------------------------------------------------------------*/
FoamFile
{
    format      ascii;
    class       volVectorField;
    location    "0.167012";
    object      U;
}
// * * * * * * * * * * * * * * * * * * * * * * * * * * * * * * * * * * * * * //

dimensions      [0 1 -1 0 0 0 0];

internalField   nonuniform List<vector> 
100
(
(0.0451859 0 0)
(0.11371 0 0)
(0.176141 0 0)
(0.238294 0 0)
(0.300783 0 0)
(0.363212 0 0)
(0.425482 0 0)
(0.487683 0 0)
(0.549885 0 0)
(0.612099 0 0)
(0.674322 0 0)
(0.736553 0 0)
(0.7988 0 0)
(0.861069 0 0)
(0.923366 0 0)
(0.985697 0 0)
(1.04807 0 0)
(1.11047 0 0)
(1.17292 0 0)
(1.23541 0 0)
(1.29794 0 0)
(1.36049 0 0)
(1.42305 0 0)
(1.4856 0 0)
(1.54813 0 0)
(1.61058 0 0)
(1.67293 0 0)
(1.73511 0 0)
(1.79707 0 0)
(1.85876 0 0)
(1.92003 0 0)
(1.98091 0 0)
(2.04164 0 0)
(2.10174 0 0)
(2.16065 0 0)
(2.21862 0 0)
(2.27599 0 0)
(2.33276 0 0)
(2.38875 0 0)
(2.44381 0 0)
(2.49783 0 0)
(2.55077 0 0)
(2.6026 0 0)
(2.6533 0 0)
(2.70283 0 0)
(2.75117 0 0)
(2.79828 0 0)
(2.84414 0 0)
(2.88874 0 0)
(2.93209 0 0)
(2.97427 0 0)
(3.01514 0 0)
(3.05567 0 0)
(3.09431 0 0)
(3.13204 0 0)
(3.17587 0 0)
(3.2218 0 0)
(3.25968 0 0)
(3.29651 0 0)
(3.32532 0 0)
(3.30909 0 0)
(3.22985 0 0)
(3.118 0 0)
(3.02984 0 0)
(3.04115 0 0)
(3.18465 0 0)
(4.5413 0 0)
(4.54648 0 0)
(4.57011 0 0)
(4.63896 0 0)
(4.66609 0 0)
(4.66278 0 0)
(4.65808 0 0)
(4.653 0 0)
(4.65003 0 0)
(4.64792 0 0)
(4.64637 0 0)
(4.64496 0 0)
(4.64354 0 0)
(4.64196 0 0)
(4.64005 0 0)
(4.63758 0 0)
(4.63437 0 0)
(4.63033 0 0)
(4.62552 0 0)
(4.62008 0 0)
(4.61424 0 0)
(4.60817 0 0)
(4.60199 0 0)
(4.5957 0 0)
(4.58926 0 0)
(4.58258 0 0)
(4.57556 0 0)
(4.56818 0 0)
(4.56014 0 0)
(4.55288 0 0)
(4.53659 0 0)
(4.58177 0 0)
(4.25485 0 0)
(6.71406 0 0)
)
;

boundaryField
{
    frontHeated
    {
        type            noSlip;
    }
    backOutlet
    {
        type            pressureInletOutletVelocity;
        value           uniform (6.71406 0 0);
    }
    defaultFaces
    {
        type            empty;
    }
}


// ************************************************************************* //
