/*--------------------------------*- C++ -*----------------------------------*\
  =========                 |
  \\      /  F ield         | OpenFOAM: The Open Source CFD Toolbox
   \\    /   O peration     | Website:  https://openfoam.org
    \\  /    A nd           | Version:  dev
     \\/     M anipulation  |
\*---------------------------------------------------------------------------*/
FoamFile
{
    format      ascii;
    class       volScalarField;
    location    "0.0517009";
    object      rhoSmear;
}
// * * * * * * * * * * * * * * * * * * * * * * * * * * * * * * * * * * * * * //

dimensions      [1 -3 -1 0 0 0 0];

internalField   nonuniform List<scalar> 
100
(
3.35397e-08
3.72664e-08
4.51337e-08
5.80159e-08
7.73443e-08
1.05267e-07
1.44885e-07
2.00602e-07
2.78608e-07
3.8757e-07
5.39596e-07
7.51577e-07
1.04707e-06
1.4589e-06
2.03283e-06
2.83263e-06
3.94716e-06
5.50027e-06
7.66452e-06
0
0
0
0
0
0
0
0
0
0
-7.66446e-06
-5.5002e-06
-3.94708e-06
-2.83252e-06
-2.03269e-06
-1.4587e-06
-1.0468e-06
-7.5121e-07
-5.39087e-07
-3.86862e-07
-2.77621e-07
-1.99228e-07
-1.42971e-07
-1.02599e-07
-7.36277e-08
-5.28371e-08
-3.79172e-08
-2.72103e-08
-1.95268e-08
-1.40129e-08
-1.0056e-08
-7.21641e-09
-5.17867e-09
-3.71634e-09
-2.66694e-09
-1.91386e-09
-1.37343e-09
-9.85608e-10
-7.07296e-10
-5.07573e-10
-3.64247e-10
-2.61392e-10
-1.87581e-10
-1.34613e-10
-9.66016e-11
-6.93236e-11
-4.97483e-11
-3.57006e-11
-2.56196e-11
-1.83853e-11
-1.31937e-11
-9.46813e-12
-6.79456e-12
-4.87594e-12
-3.49909e-12
-2.51104e-12
-1.80198e-12
-1.29314e-12
-9.27992e-13
-6.6595e-13
-4.77902e-13
-3.42955e-13
-2.46113e-13
-1.76618e-13
-1.26746e-13
-9.09576e-14
-6.52755e-14
-4.68462e-14
-3.3622e-14
-2.41337e-14
-1.73268e-14
-1.24452e-14
-8.9463e-15
-6.44147e-15
-4.65236e-15
-3.38018e-15
-2.48358e-15
-1.86293e-15
-1.44928e-15
-1.19665e-15
-1.07698e-15
)
;

boundaryField
{
    frontHeated
    {
        type            zeroGradient;
    }
    backOutlet
    {
        type            zeroGradient;
    }
    defaultFaces
    {
        type            empty;
    }
}


// ************************************************************************* //
