/*--------------------------------*- C++ -*----------------------------------*\
  =========                 |
  \\      /  F ield         | OpenFOAM: The Open Source CFD Toolbox
   \\    /   O peration     | Website:  https://openfoam.org
    \\  /    A nd           | Version:  dev
     \\/     M anipulation  |
\*---------------------------------------------------------------------------*/
FoamFile
{
    format      ascii;
    class       volScalarField;
    location    "0.0012";
    object      rhoSmear;
}
// * * * * * * * * * * * * * * * * * * * * * * * * * * * * * * * * * * * * * //

dimensions      [1 -3 -1 0 0 0 0];

internalField   nonuniform List<scalar> 
2500
(
2.87896e-06
3.15957e-06
3.74871e-06
4.70504e-06
6.12383e-06
8.14649e-06
1.09748e-05
1.4891e-05
2.02862e-05
2.76994e-05
3.78715e-05
5.18195e-05
0
-5.17536e-05
-3.77974e-05
-2.76099e-05
-2.01727e-05
-1.47428e-05
-1.07777e-05
-7.88187e-06
-5.7664e-06
-4.2206e-06
-3.0907e-06
-2.26449e-06
-1.6601e-06
-1.21776e-06
-8.9385e-07
-6.56532e-07
-4.8255e-07
-3.54918e-07
-2.61226e-07
-1.92401e-07
-1.41808e-07
-1.04588e-07
-7.71891e-08
-5.70061e-08
-4.21288e-08
-3.11549e-08
-2.30559e-08
-1.70772e-08
-1.26642e-08
-9.40825e-09
-7.00833e-09
-5.24345e-09
-3.95233e-09
-3.01802e-09
-2.35623e-09
-1.90697e-09
-1.62893e-09
-1.49613e-09
2.88625e-06
3.16699e-06
3.75639e-06
4.71309e-06
6.13233e-06
8.15551e-06
1.09844e-05
1.49011e-05
2.02968e-05
2.77104e-05
3.78828e-05
5.1831e-05
0
-5.1765e-05
-3.78085e-05
-2.76205e-05
-2.01827e-05
-1.47521e-05
-1.07863e-05
-7.88966e-06
-5.77338e-06
-4.22676e-06
-3.09608e-06
-2.26913e-06
-1.66406e-06
-1.2211e-06
-8.96646e-07
-6.58849e-07
-4.84454e-07
-3.56471e-07
-2.62482e-07
-1.9341e-07
-1.42612e-07
-1.05227e-07
-7.76935e-08
-5.74022e-08
-4.24376e-08
-3.13945e-08
-2.32413e-08
-1.72207e-08
-1.2775e-08
-9.49349e-09
-7.07348e-09
-5.29311e-09
-3.99044e-09
-3.04783e-09
-2.38027e-09
-1.92706e-09
-1.6464e-09
-1.51195e-09
2.90143e-06
3.18246e-06
3.77241e-06
4.7299e-06
6.15013e-06
8.17443e-06
1.10045e-05
1.49224e-05
2.03191e-05
2.77337e-05
3.79068e-05
5.18553e-05
0
-5.1789e-05
-3.78319e-05
-2.76429e-05
-2.02039e-05
-1.47718e-05
-1.08044e-05
-7.90605e-06
-5.78801e-06
-4.23967e-06
-3.10732e-06
-2.27881e-06
-1.6723e-06
-1.22805e-06
-9.02448e-07
-6.6365e-07
-4.88392e-07
-3.59675e-07
-2.6507e-07
-1.95486e-07
-1.44267e-07
-1.06538e-07
-7.87261e-08
-5.82109e-08
-4.3068e-08
-3.1884e-08
-2.36204e-08
-1.75132e-08
-1.29999e-08
-9.66573e-09
-7.20517e-09
-5.39398e-09
-4.06824e-09
-3.10864e-09
-2.42879e-09
-1.967e-09
-1.6808e-09
-1.54363e-09
2.92573e-06
3.20724e-06
3.79813e-06
4.75696e-06
6.17886e-06
8.20507e-06
1.10371e-05
1.4957e-05
2.03556e-05
2.77717e-05
3.7946e-05
5.18952e-05
0
-5.18285e-05
-3.78703e-05
-2.76797e-05
-2.02386e-05
-1.48041e-05
-1.0834e-05
-7.93271e-06
-5.81175e-06
-4.26054e-06
-3.12545e-06
-2.29438e-06
-1.68552e-06
-1.23916e-06
-9.11693e-07
-6.71274e-07
-4.94627e-07
-3.64733e-07
-2.69144e-07
-1.98745e-07
-1.46858e-07
-1.08585e-07
-8.03347e-08
-5.94683e-08
-4.40466e-08
-3.26427e-08
-2.42063e-08
-1.79641e-08
-1.33457e-08
-9.93024e-09
-7.40735e-09
-5.54882e-09
-4.18753e-09
-3.20159e-09
-2.50263e-09
-2.02754e-09
-1.73291e-09
-1.59165e-09
2.9611e-06
3.24336e-06
3.83571e-06
4.79665e-06
6.22118e-06
8.25038e-06
1.10856e-05
1.50087e-05
2.04102e-05
2.78288e-05
3.80049e-05
5.19552e-05
0
-5.18879e-05
-3.7928e-05
-2.77349e-05
-2.02906e-05
-1.48523e-05
-1.0878e-05
-7.97234e-06
-5.84693e-06
-4.29136e-06
-3.15211e-06
-2.31717e-06
-1.70479e-06
-1.25529e-06
-9.2506e-07
-6.82254e-07
-5.0357e-07
-3.71962e-07
-2.74944e-07
-2.03369e-07
-1.5052e-07
-1.11469e-07
-8.25932e-08
-6.12287e-08
-4.54129e-08
-3.36988e-08
-2.50195e-08
-1.85881e-08
-1.38231e-08
-1.02947e-08
-7.68553e-09
-5.76153e-09
-4.35104e-09
-3.32861e-09
-2.60321e-09
-2.10977e-09
-1.80359e-09
-1.65676e-09
3.01031e-06
3.29371e-06
3.88829e-06
4.85243e-06
6.28094e-06
8.3147e-06
1.11548e-05
1.50827e-05
2.04888e-05
2.79113e-05
3.80903e-05
5.20422e-05
0
-5.19741e-05
-3.80118e-05
-2.78149e-05
-2.03658e-05
-1.49217e-05
-1.09412e-05
-8.02896e-06
-5.89697e-06
-4.33498e-06
-3.18966e-06
-2.34912e-06
-1.73167e-06
-1.27766e-06
-9.43513e-07
-6.97335e-07
-5.15795e-07
-3.81795e-07
-2.82799e-07
-2.09601e-07
-1.55435e-07
-1.15324e-07
-8.5601e-08
-6.35647e-08
-4.72193e-08
-3.50901e-08
-2.60873e-08
-1.94048e-08
-1.44462e-08
-1.07693e-08
-8.04688e-09
-6.03714e-09
-4.5623e-09
-3.49224e-09
-2.73237e-09
-2.21511e-09
-1.89398e-09
-1.73997e-09
3.07716e-06
3.36226e-06
3.96015e-06
4.92906e-06
6.36355e-06
8.40418e-06
1.12516e-05
1.51869e-05
2.05999e-05
2.80282e-05
3.82117e-05
5.21663e-05
0
-5.20972e-05
-3.81311e-05
-2.79287e-05
-2.04723e-05
-1.50199e-05
-1.10301e-05
-8.10828e-06
-5.9667e-06
-4.39544e-06
-3.24141e-06
-2.39288e-06
-1.76826e-06
-1.30795e-06
-9.68345e-07
-7.17513e-07
-5.32059e-07
-3.94806e-07
-2.93135e-07
-2.17761e-07
-1.61839e-07
-1.20323e-07
-8.9484e-08
-6.65674e-08
-4.95316e-08
-3.68641e-08
-2.74435e-08
-2.04387e-08
-1.52324e-08
-1.13663e-08
-8.50006e-09
-6.38175e-09
-4.82564e-09
-3.69556e-09
-2.8924e-09
-2.34528e-09
-2.00547e-09
-1.84251e-09
3.16662e-06
3.45423e-06
4.05703e-06
5.033e-06
6.47639e-06
8.52727e-06
1.13857e-05
1.53321e-05
2.07555e-05
2.81929e-05
3.83833e-05
5.2342e-05
0
-5.22715e-05
-3.83e-05
-2.80893e-05
-2.06222e-05
-1.51573e-05
-1.1154e-05
-8.21823e-06
-6.06277e-06
-4.47822e-06
-3.3118e-06
-2.45201e-06
-1.81738e-06
-1.34834e-06
-1.00123e-06
-7.44066e-07
-5.53326e-07
-4.11715e-07
-3.0649e-07
-2.28243e-07
-1.70021e-07
-1.26676e-07
-9.4395e-08
-7.03469e-08
-5.2429e-08
-3.90772e-08
-2.91286e-08
-2.17182e-08
-1.62019e-08
-1.20999e-08
-9.05511e-09
-6.80242e-09
-5.14603e-09
-3.94212e-09
-3.08587e-09
-2.50225e-09
-2.13964e-09
-1.96576e-09
3.28514e-06
3.57642e-06
4.18643e-06
5.17283e-06
6.62939e-06
8.69551e-06
1.15704e-05
1.55335e-05
2.09727e-05
2.84238e-05
3.86248e-05
5.259e-05
0
-5.25177e-05
-3.85382e-05
-2.8315e-05
-2.08322e-05
-1.53489e-05
-1.13258e-05
-8.36967e-06
-6.19423e-06
-4.59068e-06
-3.40674e-06
-2.53118e-06
-1.88266e-06
-1.40162e-06
-1.04431e-06
-7.78599e-07
-5.80794e-07
-4.3341e-07
-3.23515e-07
-2.41525e-07
-1.80328e-07
-1.34635e-07
-1.00514e-07
-7.50319e-08
-5.6003e-08
-4.17946e-08
-3.11887e-08
-2.3276e-08
-1.73776e-08
-1.29862e-08
-9.72323e-09
-7.30697e-09
-5.52898e-09
-4.23583e-09
-3.31562e-09
-2.68814e-09
-2.29818e-09
-2.11121e-09
3.44088e-06
3.73753e-06
4.35808e-06
5.35979e-06
6.83576e-06
8.92449e-06
1.1824e-05
1.58122e-05
2.12753e-05
2.87473e-05
3.89644e-05
5.29397e-05
0
-5.28652e-05
-3.88737e-05
-2.86321e-05
-2.11257e-05
-1.56153e-05
-1.15631e-05
-8.57743e-06
-6.37321e-06
-4.74261e-06
-3.53397e-06
-2.63642e-06
-1.96874e-06
-1.47131e-06
-1.10022e-06
-8.23084e-07
-6.15921e-07
-4.60958e-07
-3.44987e-07
-2.58168e-07
-1.93162e-07
-1.44488e-07
-1.08045e-07
-8.07679e-08
-6.03565e-08
-4.50888e-08
-3.36746e-08
-2.51477e-08
-1.87844e-08
-1.40426e-08
-1.05165e-08
-7.90379e-09
-5.98033e-09
-4.58083e-09
-3.58462e-09
-2.90514e-09
-2.48284e-09
-2.28038e-09
3.64407e-06
3.94851e-06
4.58439e-06
5.60845e-06
7.11296e-06
9.23514e-06
1.21713e-05
1.61972e-05
2.16965e-05
2.92004e-05
3.94425e-05
5.34333e-05
0
-5.33561e-05
-3.93465e-05
-2.90773e-05
-2.15357e-05
-1.59851e-05
-1.18901e-05
-8.8615e-06
-6.6159e-06
-4.94685e-06
-3.7035e-06
-2.77542e-06
-2.08146e-06
-1.5618e-06
-1.17221e-06
-8.79899e-07
-6.60437e-07
-4.95612e-07
-3.71806e-07
-2.78814e-07
-2.08982e-07
-1.56557e-07
-1.17218e-07
-8.77153e-08
-6.56019e-08
-4.90381e-08
-3.66409e-08
-2.73712e-08
-2.04485e-08
-1.5287e-08
-1.14473e-08
-8.60151e-09
-6.50609e-09
-4.9813e-09
-3.89583e-09
-3.15545e-09
-2.6953e-09
-2.47476e-09
3.90722e-06
4.22289e-06
4.88095e-06
5.93751e-06
7.48377e-06
9.65529e-06
1.2646e-05
1.67286e-05
2.22828e-05
2.98355e-05
4.0116e-05
5.41311e-05
0
-5.40505e-05
-4.00137e-05
-2.97027e-05
-2.21082e-05
-1.64977e-05
-1.23398e-05
-9.2487e-06
-6.94365e-06
-5.22004e-06
-3.92813e-06
-2.95786e-06
-2.22801e-06
-1.67838e-06
-1.26416e-06
-9.51852e-07
-7.16359e-07
-5.38809e-07
-4.04991e-07
-3.04184e-07
-2.28292e-07
-1.71197e-07
-1.28279e-07
-9.60451e-08
-7.18576e-08
-5.37245e-08
-4.0144e-08
-2.99852e-08
-2.23966e-08
-1.67378e-08
-1.25283e-08
-9.4087e-09
-7.11211e-09
-5.44129e-09
-4.2521e-09
-3.44112e-09
-2.93718e-09
-2.6957e-09
4.24543e-06
4.57717e-06
5.26709e-06
6.37063e-06
7.9777e-06
1.02218e-05
1.32935e-05
1.74612e-05
2.30987e-05
3.07264e-05
4.10665e-05
5.51196e-05
0
-5.50349e-05
-4.09565e-05
-3.05818e-05
-2.29075e-05
-1.72075e-05
-1.29568e-05
-9.77467e-06
-7.38431e-06
-5.58356e-06
-4.22393e-06
-3.19565e-06
-2.41714e-06
-1.8274e-06
-1.3806e-06
-1.04218e-06
-7.85973e-07
-5.92155e-07
-4.45665e-07
-3.35057e-07
-2.51633e-07
-1.88781e-07
-1.41484e-07
-1.05934e-07
-7.92446e-08
-5.92305e-08
-4.42404e-08
-3.30281e-08
-2.46546e-08
-1.84126e-08
-1.37712e-08
-1.03334e-08
-7.80386e-09
-5.96453e-09
-4.656e-09
-3.76399e-09
-3.20987e-09
-2.94442e-09
4.67644e-06
5.031e-06
5.76633e-06
6.93727e-06
8.6324e-06
1.09827e-05
1.41746e-05
1.847e-05
2.42343e-05
3.19775e-05
4.24106e-05
5.65237e-05
0
-5.64338e-05
-4.22913e-05
-3.18188e-05
-2.40231e-05
-1.81889e-05
-1.38009e-05
-1.04863e-05
-7.97378e-06
-6.06433e-06
-4.61075e-06
-3.50324e-06
-2.65922e-06
-2.01622e-06
-1.52673e-06
-1.1545e-06
-8.71797e-07
-6.5739e-07
-4.95023e-07
-3.72253e-07
-2.79563e-07
-2.09689e-07
-1.57091e-07
-1.17556e-07
-8.78806e-08
-6.56356e-08
-4.89832e-08
-3.65357e-08
-2.72464e-08
-2.03273e-08
-1.51868e-08
-1.13827e-08
-8.58607e-09
-6.55417e-09
-5.10967e-09
-4.12554e-09
-3.51447e-09
-3.22185e-09
5.22053e-06
5.60714e-06
6.4066e-06
7.67346e-06
9.49523e-06
1.20002e-05
1.53696e-05
1.98568e-05
2.58145e-05
3.37366e-05
4.43156e-05
5.85242e-05
0
-5.84279e-05
-4.4185e-05
-3.3561e-05
-2.55794e-05
-1.9543e-05
-1.49517e-05
-1.14445e-05
-8.75754e-06
-6.69565e-06
-5.1126e-06
-3.89766e-06
-2.9662e-06
-2.25315e-06
-1.70828e-06
-1.29274e-06
-9.76503e-07
-7.36325e-07
-5.54289e-07
-4.16594e-07
-3.12635e-07
-2.34289e-07
-1.75347e-07
-1.31075e-07
-9.78741e-08
-7.30113e-08
-5.44199e-08
-4.0539e-08
-3.01925e-08
-2.24953e-08
-1.67838e-08
-1.25623e-08
-9.46239e-09
-7.21259e-09
-5.61466e-09
-4.52681e-09
-3.85171e-09
-3.52857e-09
5.90006e-06
6.33117e-06
7.22012e-06
8.62208e-06
1.06244e-05
1.33532e-05
1.69839e-05
2.17586e-05
2.80119e-05
3.62124e-05
4.70225e-05
6.13844e-05
0
-6.12803e-05
-4.68785e-05
-3.60168e-05
-2.77487e-05
-2.14061e-05
-1.65136e-05
-1.27269e-05
-9.792e-06
-7.51767e-06
-5.7576e-06
-4.39837e-06
-3.35139e-06
-2.54721e-06
-1.93131e-06
-1.46097e-06
-1.10279e-06
-8.30751e-07
-6.24644e-07
-4.68857e-07
-3.51358e-07
-2.62916e-07
-1.96468e-07
-1.46633e-07
-1.09317e-07
-8.14168e-08
-6.05883e-08
-4.50623e-08
-3.35082e-08
-2.49263e-08
-1.85683e-08
-1.38759e-08
-1.04351e-08
-7.94112e-09
-6.17173e-09
-4.96822e-09
-4.22185e-09
-3.86477e-09
6.73848e-06
7.23047e-06
8.24265e-06
9.83254e-06
1.20895e-05
1.51395e-05
1.91528e-05
2.43575e-05
3.10633e-05
3.97e-05
5.08798e-05
6.54916e-05
0
-6.53777e-05
-5.07197e-05
-3.94808e-05
-3.07671e-05
-2.39599e-05
-1.86211e-05
-1.44302e-05
-1.11451e-05
-8.57722e-06
-6.57752e-06
-5.02665e-06
-3.82892e-06
-2.90771e-06
-2.20192e-06
-1.66314e-06
-1.25323e-06
-9.42315e-07
-7.07144e-07
-5.29717e-07
-3.96161e-07
-2.95839e-07
-2.20625e-07
-1.64335e-07
-1.22274e-07
-9.08928e-08
-6.75131e-08
-5.01205e-08
-3.72023e-08
-2.76253e-08
-2.05428e-08
-1.53248e-08
-1.15048e-08
-8.73988e-09
-6.78075e-09
-5.44954e-09
-4.6246e-09
-4.23013e-09
7.75876e-06
8.33264e-06
9.51173e-06
1.13591e-05
1.39707e-05
1.74766e-05
2.20454e-05
2.78911e-05
3.52902e-05
4.46144e-05
5.63932e-05
7.14192e-05
0
-7.12932e-05
-5.62138e-05
-4.43675e-05
-3.49557e-05
-2.74413e-05
-2.14427e-05
-1.66709e-05
-1.28953e-05
-9.92634e-06
-7.60636e-06
-5.80447e-06
-4.41284e-06
-3.34354e-06
-2.52571e-06
-1.90276e-06
-1.42999e-06
-1.07237e-06
-8.02617e-07
-5.99676e-07
-4.47346e-07
-3.33239e-07
-2.47923e-07
-1.84241e-07
-1.3678e-07
-1.01456e-07
-7.52026e-08
-5.57166e-08
-4.12753e-08
-3.05915e-08
-2.27062e-08
-1.69076e-08
-1.26699e-08
-9.60756e-09
-7.44058e-09
-5.96974e-09
-5.05901e-09
-4.62376e-09
8.98103e-06
9.66285e-06
1.10637e-05
1.32575e-05
1.63544e-05
2.04985e-05
2.58655e-05
3.26605e-05
4.11211e-05
5.15358e-05
6.42986e-05
8.00272e-05
0
-7.98858e-05
-6.4096e-05
-5.12566e-05
-4.07426e-05
-3.2151e-05
-2.51818e-05
-1.95824e-05
-1.51284e-05
-1.16191e-05
-8.87775e-06
-6.75248e-06
-5.11569e-06
-3.86228e-06
-2.90718e-06
-2.18247e-06
-1.63462e-06
-1.22178e-06
-9.11545e-07
-6.78992e-07
-5.05041e-07
-3.75173e-07
-2.78382e-07
-2.06352e-07
-1.52824e-07
-1.13096e-07
-8.36449e-08
-6.18401e-08
-4.57182e-08
-3.38175e-08
-2.50525e-08
-1.86196e-08
-1.39269e-08
-1.05413e-08
-8.14893e-09
-6.52696e-09
-5.52351e-09
-5.04421e-09
1.04196e-05
1.12403e-05
1.29289e-05
1.55787e-05
1.93264e-05
2.43474e-05
3.08442e-05
3.90304e-05
4.91098e-05
6.12626e-05
7.5668e-05
9.26228e-05
0
-9.24617e-05
-7.54376e-05
-6.09459e-05
-4.86813e-05
-3.84536e-05
-3.00692e-05
-2.33067e-05
-1.79298e-05
-1.37058e-05
-1.04208e-05
-7.88726e-06
-5.94673e-06
-4.46894e-06
-3.34896e-06
-2.50359e-06
-1.86769e-06
-1.39075e-06
-1.03395e-06
-7.67604e-07
-5.69158e-07
-4.21549e-07
-3.11917e-07
-2.30598e-07
-1.70352e-07
-1.25767e-07
-9.28059e-08
-6.84649e-08
-5.05114e-08
-3.72888e-08
-2.75709e-08
-2.04528e-08
-1.52699e-08
-1.15367e-08
-8.90238e-09
-7.11848e-09
-6.01581e-09
-5.48939e-09
1.20793e-05
1.3074e-05
1.5126e-05
1.83596e-05
2.2958e-05
2.91552e-05
3.72178e-05
4.74101e-05
5.99363e-05
7.48629e-05
9.20549e-05
0.000111228
0
-0.000111041
-9.17906e-05
-7.45027e-05
-5.94511e-05
-4.67582e-05
-3.63416e-05
-2.79763e-05
-2.13712e-05
-1.62241e-05
-1.22545e-05
-9.21775e-06
-6.9097e-06
-5.1647e-06
-3.85103e-06
-2.86559e-06
-2.12855e-06
-1.57867e-06
-1.1693e-06
-8.65075e-07
-6.39354e-07
-4.72105e-07
-3.48332e-07
-2.56832e-07
-1.89255e-07
-1.3939e-07
-1.02628e-07
-7.55491e-08
-5.56245e-08
-4.09833e-08
-3.02455e-08
-2.23958e-08
-1.66904e-08
-1.25875e-08
-9.69634e-09
-7.74072e-09
-6.53293e-09
-5.95662e-09
1.39523e-05
1.51579e-05
1.76541e-05
2.16116e-05
2.72864e-05
3.5013e-05
4.51836e-05
5.8197e-05
7.43558e-05
9.36843e-05
0.000115667
0.000139026
0
-0.000138804
-0.000115361
-9.32734e-05
-7.38072e-05
-5.74625e-05
-4.41967e-05
-3.36832e-05
-2.54915e-05
-1.91875e-05
-1.43808e-05
-1.07413e-05
-8.0006e-06
-5.94557e-06
-4.40999e-06
-3.26576e-06
-2.41512e-06
-1.78396e-06
-1.31642e-06
-9.70554e-07
-7.15011e-07
-5.26397e-07
-3.87309e-07
-2.84826e-07
-2.0937e-07
-1.53851e-07
-1.13029e-07
-8.30346e-08
-6.10162e-08
-4.48717e-08
-3.30555e-08
-2.44338e-08
-1.81779e-08
-1.36861e-08
-1.05251e-08
-8.38929e-09
-7.07129e-09
-6.4427e-09
1.6015e-05
1.74669e-05
2.04862e-05
2.53076e-05
3.22917e-05
4.19283e-05
5.48248e-05
7.16582e-05
9.30414e-05
0.00011922
0.000149468
0.0001811
0
-0.00018083
-0.00014911
-0.000118751
-9.24225e-05
-7.08343e-05
-5.37191e-05
-4.04367e-05
-3.02734e-05
-2.25724e-05
-1.67778e-05
-1.24402e-05
-9.20588e-06
-6.80157e-06
-5.01858e-06
-3.69891e-06
-2.72371e-06
-2.00403e-06
-1.4735e-06
-1.08277e-06
-7.95242e-07
-5.83802e-07
-4.28412e-07
-3.14276e-07
-2.30485e-07
-1.69e-07
-1.23904e-07
-9.08482e-08
-6.66352e-08
-4.89181e-08
-3.59755e-08
-2.65486e-08
-1.97196e-08
-1.48233e-08
-1.1382e-08
-9.05908e-09
-7.62672e-09
-6.9439e-09
1.82272e-05
1.99553e-05
2.35647e-05
2.93715e-05
3.78738e-05
4.97763e-05
6.60117e-05
8.77354e-05
0.000116235
0.000152608
0.000196833
0.000245386
0
-0.000245047
-0.00019641
-0.000152072
-0.00011554
-8.68163e-05
-6.47808e-05
-4.81146e-05
-3.56203e-05
-2.63081e-05
-1.93957e-05
-1.42798e-05
-1.05017e-05
-7.71642e-06
-5.66571e-06
-4.15747e-06
-3.04917e-06
-2.23535e-06
-1.63812e-06
-1.20007e-06
-8.78908e-07
-6.43539e-07
-4.71102e-07
-3.44811e-07
-2.52343e-07
-1.84658e-07
-1.35131e-07
-9.8904e-08
-7.24218e-08
-5.30805e-08
-3.89763e-08
-2.87199e-08
-2.1301e-08
-1.59888e-08
-1.22594e-08
-9.74435e-09
-8.19458e-09
-7.45611e-09
2.05339e-05
2.2558e-05
2.68023e-05
3.36771e-05
4.3843e-05
5.82692e-05
7.83115e-05
0.00010581
0.00014318
0.000193406
0.000259553
0.000342213
0
-0.000341776
-0.00025905
-0.000192795
-0.000142404
-0.000104792
-7.69513e-05
-5.64321e-05
-4.1347e-05
-3.02748e-05
-2.21568e-05
-1.62095e-05
-1.18551e-05
-8.6683e-06
-6.33693e-06
-4.63184e-06
-3.38507e-06
-2.4736e-06
-1.80738e-06
-1.32048e-06
-9.64674e-07
-7.04697e-07
-5.14759e-07
-3.76005e-07
-2.74651e-07
-2.00626e-07
-1.4657e-07
-1.07106e-07
-7.83095e-08
-5.73129e-08
-4.20256e-08
-3.09251e-08
-2.29063e-08
-1.71712e-08
-1.31491e-08
-1.04389e-08
-8.76988e-09
-7.97489e-09
2.287e-05
2.51963e-05
3.00898e-05
3.80591e-05
4.99364e-05
6.69728e-05
9.09862e-05
0.000124593
0.000171587
0.000237623
0.000331715
0.000470423
0
-0.000469859
-0.000331124
-0.000236935
-0.000170728
-0.000123475
-8.94954e-05
-6.49588e-05
-4.71957e-05
-3.43146e-05
-2.49628e-05
-1.81673e-05
-1.32262e-05
-9.63163e-06
-7.01558e-06
-5.11106e-06
-3.72416e-06
-2.71398e-06
-1.97805e-06
-1.44184e-06
-1.05108e-06
-7.66289e-07
-5.5871e-07
-4.07398e-07
-2.97096e-07
-2.16687e-07
-1.58073e-07
-1.15353e-07
-8.42277e-08
-6.15665e-08
-4.50896e-08
-3.31405e-08
-2.45187e-08
-1.83588e-08
-1.40425e-08
-1.11362e-08
-9.3474e-09
-8.49564e-09
2.51667e-05
2.77869e-05
3.33106e-05
4.2339e-05
5.58644e-05
7.53966e-05
0.000103166
0.000142449
0.000198111
0.000277547
0.000392434
0.000562091
0
-0.000561434
-0.000391765
-0.000276784
-0.000197171
-0.000141232
-0.000101546
-7.32078e-05
-5.2882e-05
-3.82568e-05
-2.77086e-05
-2.00874e-05
-1.45734e-05
-1.05796e-05
-7.68426e-06
-5.58376e-06
-4.05896e-06
-2.95151e-06
-2.14683e-06
-1.56192e-06
-1.13662e-06
-8.27298e-07
-6.02265e-07
-4.38522e-07
-3.19357e-07
-2.32622e-07
-1.6949e-07
-1.2354e-07
-9.01048e-08
-6.57916e-08
-4.81339e-08
-3.53421e-08
-2.61214e-08
-1.95395e-08
-1.49309e-08
-1.18298e-08
-9.92187e-09
-9.01367e-09
2.736e-05
3.02525e-05
3.63578e-05
4.63558e-05
6.1372e-05
8.31229e-05
0.000114148
0.000158172
0.000220673
0.000309774
0.000437626
0.000622373
0
-0.000621651
-0.000436894
-0.000308946
-0.000219657
-0.00015686
-0.000112404
-8.0765e-05
-5.81559e-05
-4.19475e-05
-3.02984e-05
-2.19092e-05
-1.58578e-05
-1.1487e-05
-8.32654e-06
-6.03913e-06
-4.3823e-06
-3.18142e-06
-2.31051e-06
-1.67858e-06
-1.21986e-06
-8.86744e-07
-6.44758e-07
-4.68922e-07
-3.41122e-07
-2.48218e-07
-1.80673e-07
-1.31565e-07
-9.58706e-08
-6.99396e-08
-5.11245e-08
-3.75063e-08
-2.76979e-08
-2.07015e-08
-1.58058e-08
-1.25131e-08
-1.04881e-08
-9.5244e-09
2.93968e-05
3.25307e-05
3.9148e-05
4.999e-05
6.62821e-05
8.98873e-05
0.000123546
0.000171235
0.000238701
0.000334228
0.000469686
0.000661825
0
-0.000661057
-0.000468903
-0.000333342
-0.000237616
-0.000169835
-0.000121684
-8.73692e-05
-6.28446e-05
-4.52736e-05
-3.2658e-05
-2.3584e-05
-1.70475e-05
-1.23328e-05
-8.92841e-06
-6.46782e-06
-4.68793e-06
-3.3995e-06
-2.46625e-06
-1.78989e-06
-1.29948e-06
-9.43734e-07
-6.85578e-07
-4.98179e-07
-3.62104e-07
-2.63275e-07
-1.91485e-07
-1.39336e-07
-1.0146e-07
-7.39649e-08
-5.40298e-08
-3.96109e-08
-2.92324e-08
-2.18336e-08
-1.6659e-08
-1.318e-08
-1.10411e-08
-1.00234e-08
3.12394e-05
3.45787e-05
4.16282e-05
5.31732e-05
7.05074e-05
9.55872e-05
0.000131267
0.000181644
0.000252539
0.000352173
0.000492032
0.000687941
0
-0.00068714
-0.000491209
-0.000351238
-0.000251392
-0.000180162
-0.000129296
-9.29199e-05
-6.68643e-05
-4.81718e-05
-3.47418e-05
-2.50798e-05
-1.81201e-05
-1.31016e-05
-9.47931e-06
-6.8626e-06
-4.97088e-06
-3.60235e-06
-2.61172e-06
-1.89426e-06
-1.37438e-06
-9.97506e-07
-7.24199e-07
-5.25929e-07
-3.82052e-07
-2.7762e-07
-2.01806e-07
-1.46766e-07
-1.06813e-07
-7.78266e-08
-5.68211e-08
-4.16357e-08
-3.07107e-08
-2.29257e-08
-1.74831e-08
-1.3825e-08
-1.15764e-08
-1.05067e-08
3.28665e-05
3.63744e-05
4.37756e-05
5.58845e-05
7.40377e-05
0.000100246
0.00013742
0.000189697
0.000262894
0.00036511
0.000507533
0.000705454
0
-0.000704629
-0.000506677
-0.000364132
-0.000261691
-0.000188142
-0.000135349
-9.7442e-05
-7.02073e-05
-5.06246e-05
-3.65319e-05
-2.63811e-05
-1.90636e-05
-1.37842e-05
-9.97257e-06
-7.21866e-06
-5.22772e-06
-3.78754e-06
-2.74521e-06
-1.99046e-06
-1.4437e-06
-1.04747e-06
-7.60204e-07
-5.5188e-07
-4.0076e-07
-2.91109e-07
-2.11535e-07
-1.53785e-07
-1.11881e-07
-8.14895e-08
-5.94735e-08
-4.35631e-08
-3.21204e-08
-2.39689e-08
-1.82714e-08
-1.44428e-08
-1.20898e-08
-1.09706e-08
3.42724e-05
3.79144e-05
4.55928e-05
5.814e-05
7.69172e-05
0.000103962
0.00014221
0.000195802
0.000270517
0.000374351
0.00051829
0.000717331
0
-0.000716486
-0.000517407
-0.000373337
-0.000269265
-0.000194181
-0.000140049
-0.000101036
-7.29191e-05
-5.265e-05
-3.80331e-05
-2.74874e-05
-1.98752e-05
-1.43777e-05
-1.04053e-05
-7.53361e-06
-5.45658e-06
-3.95363e-06
-2.86563e-06
-2.07771e-06
-1.50688e-06
-1.09319e-06
-7.93293e-07
-5.75817e-07
-4.18073e-07
-3.03631e-07
-2.20592e-07
-1.60338e-07
-1.16624e-07
-8.49254e-08
-6.19671e-08
-4.5379e-08
-3.34511e-08
-2.49555e-08
-1.90184e-08
-1.50294e-08
-1.2578e-08
-1.1412e-08
3.54635e-05
3.92092e-05
4.71005e-05
5.99796e-05
7.92204e-05
0.000106873
0.000145877
0.000200364
0.000276074
0.000380923
0.000525772
0.000725459
0
-0.000724599
-0.000524866
-0.000379877
-0.000274779
-0.000198684
-0.000143637
-0.000103839
-7.50746e-05
-5.42882e-05
-3.92663e-05
-2.84089e-05
-2.05597e-05
-1.48837e-05
-1.0778e-05
-7.80725e-06
-5.657e-06
-4.10013e-06
-2.97255e-06
-2.15563e-06
-1.56361e-06
-1.13446e-06
-8.23285e-07
-5.97604e-07
-4.33892e-07
-3.15113e-07
-2.28924e-07
-1.66384e-07
-1.21012e-07
-8.81135e-08
-6.42867e-08
-4.70722e-08
-3.46948e-08
-2.58797e-08
-1.97198e-08
-1.55811e-08
-1.30379e-08
-1.18284e-08
3.64554e-05
4.02795e-05
4.83304e-05
6.14554e-05
8.10339e-05
0.000109119
0.000148649
0.000203739
0.000280099
0.000385589
0.000530993
0.000731062
0
-0.000730191
-0.000530068
-0.000384516
-0.000278766
-0.000202008
-0.000146339
-0.000105991
-7.67601e-05
-5.55906e-05
-4.02618e-05
-2.9163e-05
-2.11269e-05
-1.53078e-05
-1.10936e-05
-8.0411e-06
-5.82973e-06
-4.22736e-06
-3.06605e-06
-2.22421e-06
-1.61383e-06
-1.17119e-06
-8.50113e-07
-6.17182e-07
-4.48167e-07
-3.25515e-07
-2.36501e-07
-1.71901e-07
-1.25029e-07
-9.10402e-08
-6.64223e-08
-4.86353e-08
-3.5846e-08
-2.67373e-08
-2.03722e-08
-1.60956e-08
-1.34676e-08
-1.22177e-08
3.72686e-05
4.11508e-05
4.93194e-05
6.26233e-05
8.24438e-05
0.000110834
0.000150724
0.000206219
0.000283003
0.0003889
0.000534647
0.000734948
0
-0.000734067
-0.000533707
-0.000387804
-0.000281638
-0.000204444
-0.000148354
-0.000107624
-7.80606e-05
-5.66114e-05
-4.10534e-05
-2.97709e-05
-2.15897e-05
-1.56578e-05
-1.13567e-05
-8.23798e-06
-5.97642e-06
-4.33628e-06
-3.14668e-06
-2.28376e-06
-1.65771e-06
-1.20346e-06
-8.73811e-07
-6.34561e-07
-4.60897e-07
-3.34831e-07
-2.43313e-07
-1.76879e-07
-1.28667e-07
-9.36994e-08
-6.83685e-08
-5.00641e-08
-3.69013e-08
-2.75257e-08
-2.09735e-08
-1.6571e-08
-1.38655e-08
-1.25787e-08
3.79264e-05
4.18511e-05
5.01047e-05
6.35371e-05
8.35288e-05
0.00011213
0.000152267
0.000208033
0.000285093
0.00039125
0.000537213
0.000737656
0
-0.000736768
-0.00053626
-0.000390135
-0.000283701
-0.00020622
-0.000149846
-0.000108852
-7.90534e-05
-5.7402e-05
-4.16751e-05
-3.02544e-05
-2.19624e-05
-1.59427e-05
-1.15732e-05
-8.40148e-06
-6.09932e-06
-4.42829e-06
-3.21532e-06
-2.3348e-06
-1.69556e-06
-1.23147e-06
-8.94495e-07
-6.49808e-07
-4.7212e-07
-3.43081e-07
-2.49371e-07
-1.81324e-07
-1.31928e-07
-9.60909e-08
-7.01249e-08
-5.13576e-08
-3.78596e-08
-2.82439e-08
-2.15229e-08
-1.70065e-08
-1.42308e-08
-1.29106e-08
3.84522e-05
4.24073e-05
5.07219e-05
6.42453e-05
8.43569e-05
0.000113105
0.000153409
0.000209355
0.000286596
0.000392921
0.000539019
0.000739551
0
-0.000738657
-0.000538055
-0.000391789
-0.00028518
-0.00020751
-0.000150945
-0.000109768
-7.98046e-05
-5.80083e-05
-4.2158e-05
-3.06346e-05
-2.22588e-05
-1.61719e-05
-1.1749e-05
-8.5356e-06
-6.20104e-06
-4.50507e-06
-3.27303e-06
-2.37802e-06
-1.72784e-06
-1.2555e-06
-9.12343e-07
-6.63037e-07
-4.81907e-07
-3.50309e-07
-2.54702e-07
-1.85253e-07
-1.3482e-07
-9.82207e-08
-7.16945e-08
-5.25176e-08
-3.87218e-08
-2.88921e-08
-2.20204e-08
-1.7402e-08
-1.45633e-08
-1.3213e-08
3.88681e-05
4.28449e-05
5.12025e-05
6.47898e-05
8.49847e-05
0.000113833
0.00015425
0.000210316
0.000287677
0.000394109
0.000540294
0.000740882
0
-0.000739982
-0.000539321
-0.000392963
-0.000286241
-0.000208444
-0.00015175
-0.000110448
-8.0369e-05
-5.84695e-05
-4.25297e-05
-3.09307e-05
-2.24922e-05
-1.63543e-05
-1.18904e-05
-8.64439e-06
-6.28428e-06
-4.56842e-06
-3.32102e-06
-2.41423e-06
-1.75505e-06
-1.27589e-06
-9.27579e-07
-6.74392e-07
-4.90351e-07
-3.56577e-07
-2.59347e-07
-1.8869e-07
-1.37361e-07
-1.00099e-07
-7.3084e-08
-5.35481e-08
-3.94905e-08
-2.94719e-08
-2.24668e-08
-1.7758e-08
-1.48633e-08
-1.34864e-08
3.9194e-05
4.3186e-05
5.15739e-05
6.52055e-05
8.54579e-05
0.000114374
0.000154868
0.000211014
0.000288453
0.000394955
0.000541196
0.000741819
0
-0.000740916
-0.000540216
-0.000393798
-0.000287001
-0.00020912
-0.000152339
-0.000110951
-8.07906e-05
-5.88179e-05
-4.28137e-05
-3.11593e-05
-2.26744e-05
-1.6498e-05
-1.20028e-05
-8.73176e-06
-6.3517e-06
-4.62015e-06
-3.36051e-06
-2.44423e-06
-1.77776e-06
-1.29301e-06
-9.40451e-07
-6.8404e-07
-4.97564e-07
-3.61957e-07
-2.63352e-07
-1.91668e-07
-1.39572e-07
-1.0174e-07
-7.43025e-08
-5.44551e-08
-4.01695e-08
-2.99859e-08
-2.28638e-08
-1.80756e-08
-1.51317e-08
-1.37313e-08
3.94473e-05
4.34499e-05
5.18588e-05
6.55211e-05
8.58129e-05
0.000114776
0.000155321
0.00021152
0.00028901
0.000395559
0.000541836
0.000742481
0
-0.000741575
-0.000540849
-0.000394392
-0.000287545
-0.000209608
-0.000152767
-0.00011132
-8.1104e-05
-5.90795e-05
-4.30291e-05
-3.13346e-05
-2.28153e-05
-1.66103e-05
-1.20915e-05
-8.80126e-06
-6.40579e-06
-4.66198e-06
-3.39268e-06
-2.46885e-06
-1.79652e-06
-1.30725e-06
-9.51218e-07
-6.92156e-07
-5.03664e-07
-3.66531e-07
-2.66774e-07
-1.94222e-07
-1.41477e-07
-1.0316e-07
-7.53608e-08
-5.52459e-08
-4.07636e-08
-3.04372e-08
-2.32137e-08
-1.83564e-08
-1.53696e-08
-1.39486e-08
3.96427e-05
4.36527e-05
5.2076e-05
6.57595e-05
8.60782e-05
0.000115073
0.000155652
0.000211887
0.000289411
0.000395989
0.000542289
0.00074295
0
-0.00074204
-0.000541298
-0.000394815
-0.000287935
-0.00020996
-0.000153079
-0.000111591
-8.13358e-05
-5.92749e-05
-4.31915e-05
-3.14679e-05
-2.29236e-05
-1.66974e-05
-1.21609e-05
-8.85608e-06
-6.44879e-06
-4.69549e-06
-3.41865e-06
-2.48887e-06
-1.81187e-06
-1.31897e-06
-9.60136e-07
-6.98916e-07
-5.08773e-07
-3.7038e-07
-2.69668e-07
-1.96393e-07
-1.43103e-07
-1.04376e-07
-7.62711e-08
-5.59286e-08
-4.12785e-08
-3.08298e-08
-2.35191e-08
-1.86022e-08
-1.55784e-08
-1.41397e-08
3.97923e-05
4.38074e-05
5.22406e-05
6.59386e-05
8.62756e-05
0.000115291
0.000155894
0.000212152
0.000289699
0.000396297
0.000542612
0.000743282
0
-0.00074237
-0.000541616
-0.000395116
-0.000288214
-0.000210213
-0.000153305
-0.00011179
-8.15068e-05
-5.94202e-05
-4.33134e-05
-3.15689e-05
-2.30063e-05
-1.67644e-05
-1.22147e-05
-8.89895e-06
-6.48269e-06
-4.72211e-06
-3.43942e-06
-2.50498e-06
-1.82431e-06
-1.32853e-06
-9.6745e-07
-7.04492e-07
-5.13008e-07
-3.73588e-07
-2.7209e-07
-1.98218e-07
-1.44476e-07
-1.05407e-07
-7.70459e-08
-5.6512e-08
-4.172e-08
-3.11676e-08
-2.37828e-08
-1.88152e-08
-1.57598e-08
-1.43059e-08
3.9906e-05
4.39246e-05
5.23647e-05
6.60724e-05
8.64219e-05
0.000115452
0.00015607
0.000212344
0.000289905
0.000396516
0.000542842
0.000743517
0
-0.000742604
-0.000541842
-0.000395331
-0.000288414
-0.000210396
-0.000153469
-0.000111934
-8.16323e-05
-5.95277e-05
-4.34042e-05
-3.16447e-05
-2.30689e-05
-1.68156e-05
-1.22562e-05
-8.9322e-06
-6.50917e-06
-4.74305e-06
-3.45587e-06
-2.51783e-06
-1.83429e-06
-1.33625e-06
-9.73386e-07
-7.09041e-07
-5.16482e-07
-3.76231e-07
-2.74095e-07
-1.99736e-07
-1.45622e-07
-1.06272e-07
-7.76979e-08
-5.70046e-08
-4.20942e-08
-3.14549e-08
-2.40079e-08
-1.89975e-08
-1.59154e-08
-1.44488e-08
3.99919e-05
4.40128e-05
5.24575e-05
6.61719e-05
8.65297e-05
0.000115569
0.000156198
0.000212482
0.000290054
0.000396673
0.000543005
0.000743684
0
-0.00074277
-0.000542003
-0.000395483
-0.000288556
-0.000210527
-0.000153587
-0.000112039
-8.1724e-05
-5.96068e-05
-4.34715e-05
-3.17013e-05
-2.3116e-05
-1.68543e-05
-1.22878e-05
-8.95775e-06
-6.52965e-06
-4.75935e-06
-3.46876e-06
-2.52796e-06
-1.84221e-06
-1.3424e-06
-9.78145e-07
-7.12707e-07
-5.19294e-07
-3.78381e-07
-2.75734e-07
-2.00981e-07
-1.46566e-07
-1.06987e-07
-7.82391e-08
-5.7415e-08
-4.2407e-08
-3.16959e-08
-2.41972e-08
-1.91514e-08
-1.60471e-08
-1.45697e-08
4.0056e-05
4.40785e-05
5.25263e-05
6.62452e-05
8.66087e-05
0.000115655
0.00015629
0.000212581
0.000290159
0.000396784
0.00054312
0.000743802
0
-0.000742887
-0.000542116
-0.000395591
-0.000288658
-0.00021062
-0.000153671
-0.000112114
-8.17905e-05
-5.96645e-05
-4.3521e-05
-3.17432e-05
-2.31511e-05
-1.68834e-05
-1.23116e-05
-8.97715e-06
-6.54531e-06
-4.77189e-06
-3.47873e-06
-2.53584e-06
-1.84839e-06
-1.34723e-06
-9.81906e-07
-7.15617e-07
-5.21537e-07
-3.80103e-07
-2.77051e-07
-2.01986e-07
-1.47331e-07
-1.07568e-07
-7.86806e-08
-5.77509e-08
-4.26638e-08
-3.18944e-08
-2.43536e-08
-1.92788e-08
-1.61564e-08
-1.46703e-08
4.01031e-05
4.41267e-05
5.25766e-05
6.62986e-05
8.66657e-05
0.000115716
0.000156356
0.000212652
0.000290234
0.000396862
0.000543201
0.000743885
0
-0.000742969
-0.000542196
-0.000395667
-0.000288729
-0.000210686
-0.000153731
-0.000112168
-8.18382e-05
-5.97062e-05
-4.35569e-05
-3.17738e-05
-2.31768e-05
-1.69048e-05
-1.23293e-05
-8.99164e-06
-6.55707e-06
-4.78136e-06
-3.4863e-06
-2.54185e-06
-1.85314e-06
-1.35096e-06
-9.84816e-07
-7.17879e-07
-5.23288e-07
-3.81452e-07
-2.78088e-07
-2.0278e-07
-1.47937e-07
-1.0803e-07
-7.90324e-08
-5.80194e-08
-4.28698e-08
-3.2054e-08
-2.44798e-08
-1.93818e-08
-1.62449e-08
-1.47518e-08
4.0137e-05
4.41613e-05
5.26126e-05
6.63365e-05
8.67062e-05
0.000115759
0.000156403
0.000212701
0.000290286
0.000396917
0.000543257
0.000743942
0
-0.000743025
-0.000542251
-0.00039572
-0.000288779
-0.000210732
-0.000153773
-0.000112206
-8.18718e-05
-5.97356e-05
-4.35824e-05
-3.17956e-05
-2.31953e-05
-1.69203e-05
-1.23422e-05
-9.00219e-06
-6.56567e-06
-4.78831e-06
-3.49188e-06
-2.54631e-06
-1.85668e-06
-1.35375e-06
-9.87001e-07
-7.19583e-07
-5.24611e-07
-3.82476e-07
-2.78877e-07
-2.03385e-07
-1.48401e-07
-1.08384e-07
-7.93033e-08
-5.82266e-08
-4.30291e-08
-3.21778e-08
-2.45778e-08
-1.94621e-08
-1.63139e-08
-1.48155e-08
4.01603e-05
4.4185e-05
5.26372e-05
6.63624e-05
8.67336e-05
0.000115789
0.000156434
0.000212734
0.000290321