/*--------------------------------*- C++ -*----------------------------------*\
  =========                 |
  \\      /  F ield         | OpenFOAM: The Open Source CFD Toolbox
   \\    /   O peration     | Website:  https://openfoam.org
    \\  /    A nd           | Version:  dev
     \\/     M anipulation  |
\*---------------------------------------------------------------------------*/
FoamFile
{
    format      ascii;
    class       volScalarField;
    location    "0.171265";
    object      rhoSmear;
}
// * * * * * * * * * * * * * * * * * * * * * * * * * * * * * * * * * * * * * //

dimensions      [1 -3 -1 0 0 0 0];

internalField   nonuniform List<scalar> 
100
(
3.52515e-14
3.91684e-14
4.74372e-14
6.09769e-14
8.12918e-14
1.10639e-13
1.5228e-13
2.1084e-13
2.92827e-13
4.07351e-13
5.67136e-13
7.89936e-13
1.10051e-12
1.53336e-12
2.13658e-12
2.9772e-12
4.14862e-12
5.78099e-12
8.0557e-12
1.12255e-11
1.56425e-11
2.17977e-11
3.03748e-11
4.23268e-11
5.89819e-11
8.21904e-11
1.14531e-10
1.59598e-10
2.22397e-10
3.09908e-10
4.31853e-10
6.01781e-10
8.38574e-10
1.16854e-09
1.62835e-09
2.26908e-09
3.16193e-09
4.40611e-09
6.13986e-09
8.55581e-09
1.19224e-08
1.66137e-08
2.3151e-08
3.22606e-08
4.49548e-08
6.26439e-08
8.72934e-08
1.21642e-07
1.69507e-07
2.36205e-07
3.29149e-07
4.58665e-07
6.39144e-07
8.90638e-07
1.24109e-06
1.72945e-06
2.40996e-06
3.35825e-06
4.67968e-06
6.52107e-06
9.08702e-06
1.26626e-05
1.76452e-05
2.45884e-05
3.42636e-05
4.77459e-05
6.65332e-05
9.27132e-05
0.000129195
0
0
0
0
0
0
0
0
0
0
-0.000129195
-9.27135e-05
-6.65336e-05
-4.77463e-05
-3.42642e-05
-2.45892e-05
-1.76464e-05
-1.26643e-05
-9.0893e-06
-6.52423e-06
-4.68409e-06
-3.36439e-06
-2.41852e-06
-1.74137e-06
-1.25771e-06
-9.1379e-07
-6.71405e-07
-5.0362e-07
-3.91793e-07
-3.23499e-07
-2.91149e-07
)
;

boundaryField
{
    frontHeated
    {
        type            zeroGradient;
    }
    backOutlet
    {
        type            zeroGradient;
    }
    defaultFaces
    {
        type            empty;
    }
}


// ************************************************************************* //
