/*--------------------------------*- C++ -*----------------------------------*\
  =========                 |
  \\      /  F ield         | OpenFOAM: The Open Source CFD Toolbox
   \\    /   O peration     | Website:  https://openfoam.org
    \\  /    A nd           | Version:  dev
     \\/     M anipulation  |
\*---------------------------------------------------------------------------*/
FoamFile
{
    format      ascii;
    class       volVectorField;
    location    "0.171265";
    object      U;
}
// * * * * * * * * * * * * * * * * * * * * * * * * * * * * * * * * * * * * * //

dimensions      [0 1 -1 0 0 0 0];

internalField   nonuniform List<vector> 
100
(
(0.0438682 0 0)
(0.110773 0 0)
(0.171333 0 0)
(0.231341 0 0)
(0.291664 0 0)
(0.351991 0 0)
(0.412187 0 0)
(0.472309 0 0)
(0.532421 0 0)
(0.592543 0 0)
(0.652673 0 0)
(0.712813 0 0)
(0.772966 0 0)
(0.833141 0 0)
(0.893346 0 0)
(0.953586 0 0)
(1.01387 0 0)
(1.07419 0 0)
(1.13456 0 0)
(1.19498 0 0)
(1.25543 0 0)
(1.31592 0 0)
(1.37643 0 0)
(1.43694 0 0)
(1.49743 0 0)
(1.55785 0 0)
(1.61816 0 0)
(1.67832 0 0)
(1.73824 0 0)
(1.79788 0 0)
(1.85712 0 0)
(1.91586 0 0)
(1.97425 0 0)
(2.03218 0 0)
(2.08917 0 0)
(2.14501 0 0)
(2.19989 0 0)
(2.25394 0 0)
(2.30715 0 0)
(2.35939 0 0)
(2.4105 0 0)
(2.4604 0 0)
(2.50902 0 0)
(2.55633 0 0)
(2.60229 0 0)
(2.64687 0 0)
(2.69004 0 0)
(2.73176 0 0)
(2.77201 0 0)
(2.81078 0 0)
(2.84814 0 0)
(2.88393 0 0)
(2.91873 0 0)
(2.95228 0 0)
(2.98366 0 0)
(3.01631 0 0)
(3.05351 0 0)
(3.08985 0 0)
(3.12211 0 0)
(3.15237 0 0)
(3.16966 0 0)
(3.15072 0 0)
(3.0849 0 0)
(2.98844 0 0)
(2.89838 0 0)
(2.85499 0 0)
(2.91694 0 0)
(3.10097 0 0)
(4.53829 0 0)
(4.54773 0 0)
(4.5732 0 0)
(4.63962 0 0)
(4.66514 0 0)
(4.66202 0 0)
(4.65783 0 0)
(4.65283 0 0)
(4.64982 0 0)
(4.64762 0 0)
(4.64604 0 0)
(4.64459 0 0)
(4.64312 0 0)
(4.64142 0 0)
(4.6393 0 0)
(4.63656 0 0)
(4.63306 0 0)
(4.62877 0 0)
(4.62378 0 0)
(4.61824 0 0)
(4.61234 0 0)
(4.60624 0 0)
(4.59999 0 0)
(4.5936 0 0)
(4.587 0 0)
(4.58017 0 0)
(4.57277 0 0)
(4.56639 0 0)
(4.55008 0 0)
(4.59855 0 0)
(4.26195 0 0)
(6.72575 0 0)
)
;

boundaryField
{
    frontHeated
    {
        type            noSlip;
    }
    backOutlet
    {
        type            pressureInletOutletVelocity;
        value           uniform (6.72575 0 0);
    }
    defaultFaces
    {
        type            empty;
    }
}


// ************************************************************************* //
