/*--------------------------------*- C++ -*----------------------------------*\
  =========                 |
  \\      /  F ield         | OpenFOAM: The Open Source CFD Toolbox
   \\    /   O peration     | Website:  https://openfoam.org
    \\  /    A nd           | Version:  dev
     \\/     M anipulation  |
\*---------------------------------------------------------------------------*/
FoamFile
{
    format      ascii;
    class       volScalarField;
    location    "0.232628";
    object      T;
}
// * * * * * * * * * * * * * * * * * * * * * * * * * * * * * * * * * * * * * //

dimensions      [0 0 0 1 0 0 0];

internalField   nonuniform List<scalar> 
100
(
240.997
205.445
194.581
190.146
188.024
186.9
186.264
185.89
185.667
185.538
185.469
185.441
185.441
185.461
185.495
185.538
185.589
185.644
185.701
185.759
185.817
185.873
185.928
185.979
186.027
186.073
186.115
186.155
186.192
186.229
186.266
186.305
186.348
186.396
186.452
186.519
186.6
186.698
186.815
186.957
187.126
187.326
187.562
187.836
188.155
188.52
188.938
189.411
189.944
190.54
191.205
191.943
192.756
193.65
194.628
195.695
196.855
198.112
199.471
200.936
202.51
204.199
206.007
207.938
209.996
212.185
214.507
216.967
219.571
222.323
225.232
228.307
231.557
234.994
238.63
242.472
246.529
250.803
255.294
259.997
264.898
269.989
275.255
280.646
286.09
291.565
297.155
303.013
309.508
316.185
323.055
330.859
339.223
348.408
361.388
385.06
385.118
385.121
385.123
384.584
)
;

boundaryField
{
    frontHeated
    {
        type            fixedValue;
        value           uniform 385.15;
    }
    backOutlet
    {
        type            fixedValue;
        value           uniform 385.15;
    }
    defaultFaces
    {
        type            empty;
    }
}


// ************************************************************************* //
