/*--------------------------------*- C++ -*----------------------------------*\
  =========                 |
  \\      /  F ield         | OpenFOAM: The Open Source CFD Toolbox
   \\    /   O peration     | Website:  https://openfoam.org
    \\  /    A nd           | Version:  dev
     \\/     M anipulation  |
\*---------------------------------------------------------------------------*/
FoamFile
{
    format      ascii;
    class       volScalarField;
    location    "0.207942";
    object      thermo:rho;
}
// * * * * * * * * * * * * * * * * * * * * * * * * * * * * * * * * * * * * * //

dimensions      [1 -3 0 0 0 0 0];

internalField   nonuniform List<scalar> 
100
(
0.0907018
0.104071
0.108668
0.110585
0.1115
0.11198
0.112245
0.112394
0.112475
0.112515
0.112527
0.11252
0.112501
0.112474
0.11244
0.112404
0.112365
0.112325
0.112286
0.112248
0.112212
0.112178
0.112147
0.112118
0.112092
0.112067
0.112044
0.11202
0.111996
0.111968
0.111937
0.111899
0.111852
0.111793
0.111721
0.111632
0.111523
0.11139
0.111231
0.111043
0.110823
0.110567
0.110272
0.109936
0.109557
0.109131
0.108657
0.108133
0.107556
0.106926
0.106241
0.105501
0.104704
0.103849
0.102938
0.101969
0.100943
0.099861
0.0987241
0.0975342
0.0962938
0.0950063
0.0936748
0.0923014
0.090887
0.0894305
0.0879299
0.0863827
0.0847876
0.083146
0.0814628
0.079747
0.0780112
0.0762701
0.0745393
0.0728339
0.0711673
0.069551
0.067996
0.0665101
0.0651242
0.0638587
0.0627315
0.0626305
0.0572818
0.0538603
232.773
864.374
904.929
928.424
942.678
949.668
957.989
967.433
966.792
967.932
968.256
967.991
910.163
822.523
)
;

boundaryField
{
    frontHeated
    {
        type            calculated;
        value           uniform 0.0562093;
    }
    backOutlet
    {
        type            calculated;
        value           uniform 822.506;
    }
    defaultFaces
    {
        type            empty;
    }
}


// ************************************************************************* //
