/*--------------------------------*- C++ -*----------------------------------*\
  =========                 |
  \\      /  F ield         | OpenFOAM: The Open Source CFD Toolbox
   \\    /   O peration     | Website:  https://openfoam.org
    \\  /    A nd           | Version:  dev
     \\/     M anipulation  |
\*---------------------------------------------------------------------------*/
FoamFile
{
    format      ascii;
    class       volScalarField;
    location    "0.0918259";
    object      p;
}
// * * * * * * * * * * * * * * * * * * * * * * * * * * * * * * * * * * * * * //

dimensions      [1 -1 -2 0 0 0 0];

internalField   nonuniform List<scalar> 
100
(
20040.8
20040.8
20040.8
20040.8
20040.8
20040.8
20040.8
20040.8
20040.8
20040.8
20040.7
20040.7
20040.7
20040.7
20040.7
20040.6
20040.6
20040.6
20040.6
20040.5
20040.5
20040.5
20040.4
20040.4
20040.3
20040.3
20040.2
20040.1
20040
20040
20039.9
20039.8
20039.5
20039.6
20136.7
19700.4
19439
19279.9
19108
18927.1
18751.6
18577.2
18402.5
18227.7
18052.8
17877.6
17702
17526
17349.5
17172.4
16994.6
16816.1
16637
16457.1
16276.5
16095.2
15913.4
15731.1
15548.3
15365.2
15181.7
14998.1
14814.2
14630.2
14446.1
14261.9
14077.7
13893.4
13709
13524.6
13340.3
13155.9
12971.5
12787
12602.6
12418.2
12233.8
12049.4
11864.9
11680.5
11496.1
11311.6
11127.2
10942.8
10758.4
10573.9
10389.3
10206.3
10023.2
10000
10000
10000
10000
10000
10000
10000
10000
10000
10000
10000
)
;

boundaryField
{
    frontHeated
    {
        type            calculated;
        value           uniform 20040.8;
    }
    backOutlet
    {
        type            calculated;
        value           uniform 10000;
    }
    defaultFaces
    {
        type            empty;
    }
}


// ************************************************************************* //
