/*--------------------------------*- C++ -*----------------------------------*\
  =========                 |
  \\      /  F ield         | OpenFOAM: The Open Source CFD Toolbox
   \\    /   O peration     | Website:  https://openfoam.org
    \\  /    A nd           | Version:  dev
     \\/     M anipulation  |
\*---------------------------------------------------------------------------*/
FoamFile
{
    format      ascii;
    class       volScalarField;
    location    "0.004368";
    object      p;
}
// * * * * * * * * * * * * * * * * * * * * * * * * * * * * * * * * * * * * * //

dimensions      [1 -1 -2 0 0 0 0];

internalField   nonuniform List<scalar> 
100
(
98485.5
98485.5
98485.3
98485
98484.7
98484.2
98483.7
98483.1
98482.4
98481.5
98475.7
97693.1
96514.3
95370.2
94250
93130.1
92009
90887.8
89766.6
88645.4
87524.2
86403
85281.9
84160.7
83039.5
81918.3
80797.1
79676
78554.8
77433.6
76312.4
75191.2
74070.1
72948.9
71827.7
70706.5
69585.3
68464.2
67343
66221.8
65100.6
63979.4
62858.3
61737.1
60615.9
59494.7
58373.5
57252.4
56131.2
55010
53888.8
52767.6
51646.5
50525.3
49404.1
48282.9
47161.7
46040.5
44919.4
43798.2
42677
41555.8
40434.6
39313.5
38192.3
37071.1
35949.9
34828.7
33707.5
32586.4
31465.2
30344
29222.8
28101.6
26980.4
25859.3
24738.1
23616.9
22495.7
21374.5
20253.3
19132.2
18011
16889.8
15768.6
14647.4
13527
12408
11258.1
10012.9
10000
10000
10000
10000
10000
10000
10000
10000
10000
10000
)
;

boundaryField
{
    frontHeated
    {
        type            calculated;
        value           uniform 98485.5;
    }
    backOutlet
    {
        type            calculated;
        value           uniform 10000;
    }
    defaultFaces
    {
        type            empty;
    }
}


// ************************************************************************* //
