/*--------------------------------*- C++ -*----------------------------------*\
  =========                 |
  \\      /  F ield         | OpenFOAM: The Open Source CFD Toolbox
   \\    /   O peration     | Website:  https://openfoam.org
    \\  /    A nd           | Version:  dev
     \\/     M anipulation  |
\*---------------------------------------------------------------------------*/
FoamFile
{
    format      ascii;
    class       volScalarField;
    location    "0.004368";
    object      T;
}
// * * * * * * * * * * * * * * * * * * * * * * * * * * * * * * * * * * * * * //

dimensions      [0 0 0 1 0 0 0];

internalField   nonuniform List<scalar> 
100
(
377.402
377.371
377.373
377.378
377.38
377.382
377.392
377.449
377.948
384.947
385.141
385.149
385.15
385.15
385.15
385.15
385.15
385.15
385.15
385.15
385.15
385.15
385.15
385.15
385.15
385.15
385.15
385.15
385.15
385.15
385.15
385.15
385.15
385.15
385.15
385.15
385.15
385.15
385.15
385.15
385.15
385.15
385.15
385.15
385.15
385.15
385.15
385.15
385.15
385.15
385.15
385.15
385.15
385.15
385.15
385.15
385.15
385.15
385.15
385.15
385.15
385.15
385.15
385.15
385.15
385.15
385.15
385.15
385.15
385.15
385.15
385.15
385.15
385.15
385.15
385.15
385.15
385.15
385.15
385.15
385.15
385.15
385.15
385.15
385.15
385.15
385.15
385.15
385.15
385.15
385.15
385.15
385.15
385.15
385.15
385.15
385.15
385.15
385.15
385.15
)
;

boundaryField
{
    frontHeated
    {
        type            fixedValue;
        value           uniform 385.15;
    }
    backOutlet
    {
        type            fixedValue;
        value           uniform 385.15;
    }
    defaultFaces
    {
        type            empty;
    }
}


// ************************************************************************* //
