/*--------------------------------*- C++ -*----------------------------------*\
  =========                 |
  \\      /  F ield         | OpenFOAM: The Open Source CFD Toolbox
   \\    /   O peration     | Website:  https://openfoam.org
    \\  /    A nd           | Version:  dev
     \\/     M anipulation  |
\*---------------------------------------------------------------------------*/
FoamFile
{
    format      ascii;
    class       volVectorField;
    location    "0.004368";
    object      U;
}
// * * * * * * * * * * * * * * * * * * * * * * * * * * * * * * * * * * * * * //

dimensions      [0 1 -1 0 0 0 0];

internalField   nonuniform List<vector> 
100
(
(0.000638895 0 0)
(0.000221215 0 0)
(0.000549181 0 0)
(0.000759361 0 0)
(0.000890822 0 0)
(0.000981277 0 0)
(0.000977446 0 0)
(0.000765206 0 0)
(-0.00516725 0 0)
(0.0114301 0 0)
(0.00167302 0 0)
(-0.000927969 0 0)
(-5.40837e-05 0 0)
(-0.000144436 0 0)
(-0.000170581 0 0)
(-0.000173464 0 0)
(-0.000172968 0 0)
(-0.000172877 0 0)
(-0.000172836 0 0)
(-0.000172841 0 0)
(-0.000172841 0 0)
(-0.00017284 0 0)
(-0.00017284 0 0)
(-0.000172839 0 0)
(-0.000172839 0 0)
(-0.000172838 0 0)
(-0.000172838 0 0)
(-0.000172838 0 0)
(-0.000172837 0 0)
(-0.000172837 0 0)
(-0.000172837 0 0)
(-0.000172837 0 0)
(-0.000172837 0 0)
(-0.000172836 0 0)
(-0.000172836 0 0)
(-0.000172836 0 0)
(-0.000172836 0 0)
(-0.000172836 0 0)
(-0.000172836 0 0)
(-0.000172836 0 0)
(-0.000172836 0 0)
(-0.000172836 0 0)
(-0.000172836 0 0)
(-0.000172836 0 0)
(-0.000172836 0 0)
(-0.000172836 0 0)
(-0.000172836 0 0)
(-0.000172836 0 0)
(-0.000172836 0 0)
(-0.000172836 0 0)
(-0.000172836 0 0)
(-0.000172836 0 0)
(-0.000172836 0 0)
(-0.000172836 0 0)
(-0.000172836 0 0)
(-0.000172836 0 0)
(-0.000172836 0 0)
(-0.000172836 0 0)
(-0.000172836 0 0)
(-0.000172836 0 0)
(-0.000172836 0 0)
(-0.000172836 0 0)
(-0.000172836 0 0)
(-0.000172836 0 0)
(-0.000172836 0 0)
(-0.000172836 0 0)
(-0.000172836 0 0)
(-0.000172836 0 0)
(-0.000172836 0 0)
(-0.000172836 0 0)
(-0.000172836 0 0)
(-0.000172836 0 0)
(-0.000172836 0 0)
(-0.000172836 0 0)
(-0.000172836 0 0)
(-0.000172836 0 0)
(-0.000172836 0 0)
(-0.000172836 0 0)
(-0.000172836 0 0)
(-0.000172836 0 0)
(-0.000172836 0 0)
(-0.000172836 0 0)
(-0.000172836 0 0)
(-0.000172836 0 0)
(-0.000172836 0 0)
(-0.000172836 0 0)
(-0.000172836 0 0)
(-0.000172836 0 0)
(-0.000172836 0 0)
(-0.000172836 0 0)
(-0.000172836 0 0)
(-0.000172836 0 0)
(-0.000172836 0 0)
(-0.000172836 0 0)
(-0.000172835 0 0)
(-0.000172839 0 0)
(-0.000172835 0 0)
(-0.000172853 0 0)
(-0.000172819 0 0)
(-0.000172808 0 0)
)
;

boundaryField
{
    frontHeated
    {
        type            noSlip;
    }
    backOutlet
    {
        type            pressureInletOutletVelocity;
        value           uniform (-0.000172808 0 0);
    }
    defaultFaces
    {
        type            empty;
    }
}


// ************************************************************************* //
