/*--------------------------------*- C++ -*----------------------------------*\
  =========                 |
  \\      /  F ield         | OpenFOAM: The Open Source CFD Toolbox
   \\    /   O peration     | Website:  https://openfoam.org
    \\  /    A nd           | Version:  dev
     \\/     M anipulation  |
\*---------------------------------------------------------------------------*/
FoamFile
{
    format      ascii;
    class       volVectorField;
    location    "0.004368";
    object      U;
}
// * * * * * * * * * * * * * * * * * * * * * * * * * * * * * * * * * * * * * //

dimensions      [0 1 -1 0 0 0 0];

internalField   nonuniform List<vector> 
100
(
(0.0241303 0 0)
(0.0681298 0 0)
(0.113651 0 0)
(0.158767 0 0)
(0.204765 0 0)
(0.250541 0 0)
(0.295315 0 0)
(0.340789 0 0)
(0.429072 0 0)
(0.553997 0 0)
(0.37619 0 0)
(0.433627 0 0)
(0.494966 0 0)
(0.498377 0 0)
(0.496378 0 0)
(0.496056 0 0)
(0.496126 0 0)
(0.49614 0 0)
(0.496139 0 0)
(0.496139 0 0)
(0.496139 0 0)
(0.496139 0 0)
(0.496139 0 0)
(0.496139 0 0)
(0.496139 0 0)
(0.496139 0 0)
(0.496139 0 0)
(0.496139 0 0)
(0.496139 0 0)
(0.496139 0 0)
(0.496139 0 0)
(0.496139 0 0)
(0.496139 0 0)
(0.496139 0 0)
(0.496139 0 0)
(0.496139 0 0)
(0.496139 0 0)
(0.496139 0 0)
(0.496139 0 0)
(0.496139 0 0)
(0.496139 0 0)
(0.496139 0 0)
(0.496139 0 0)
(0.496139 0 0)
(0.496139 0 0)
(0.496139 0 0)
(0.496139 0 0)
(0.496139 0 0)
(0.496139 0 0)
(0.496139 0 0)
(0.496139 0 0)
(0.496139 0 0)
(0.496139 0 0)
(0.496139 0 0)
(0.49614 0 0)
(0.49614 0 0)
(0.49614 0 0)
(0.49614 0 0)
(0.49614 0 0)
(0.49614 0 0)
(0.49614 0 0)
(0.49614 0 0)
(0.49614 0 0)
(0.49614 0 0)
(0.49614 0 0)
(0.49614 0 0)
(0.49614 0 0)
(0.49614 0 0)
(0.49614 0 0)
(0.49614 0 0)
(0.49614 0 0)
(0.49614 0 0)
(0.49614 0 0)
(0.49614 0 0)
(0.49614 0 0)
(0.49614 0 0)
(0.49614 0 0)
(0.49614 0 0)
(0.49614 0 0)
(0.49614 0 0)
(0.49614 0 0)
(0.49614 0 0)
(0.49614 0 0)
(0.496141 0 0)
(0.496142 0 0)
(0.496076 0 0)
(0.496132 0 0)
(0.498248 0 0)
(0.499274 0 0)
(0.409591 0 0)
(0.265428 0 0)
(0.135779 0 0)
(0.0371899 0 0)
(0.0076457 0 0)
(0.00173662 0 0)
(0.00415135 0 0)
(0.0357382 0 0)
(0.249334 0 0)
(0.913276 0 0)
(3.02561 0 0)
)
;

boundaryField
{
    frontHeated
    {
        type            noSlip;
    }
    backOutlet
    {
        type            pressureInletOutletVelocity;
        value           uniform (3.02561 0 0);
    }
    defaultFaces
    {
        type            empty;
    }
}


// ************************************************************************* //
