/*--------------------------------*- C++ -*----------------------------------*\
  =========                 |
  \\      /  F ield         | OpenFOAM: The Open Source CFD Toolbox
   \\    /   O peration     | Website:  https://openfoam.org
    \\  /    A nd           | Version:  dev
     \\/     M anipulation  |
\*---------------------------------------------------------------------------*/
FoamFile
{
    format      ascii;
    class       volScalarField;
    location    "1.418258";
    object      p_rgh;
}
// * * * * * * * * * * * * * * * * * * * * * * * * * * * * * * * * * * * * * //

dimensions      [1 -1 -2 0 0 0 0];

internalField   nonuniform List<scalar> 
100
(
100014
100014
100014
100014
100014
100014
100014
100014
100014
100014
102249
104756
104767
104767
104767
104767
104767
104767
104767
104767
104767
104767
104767
104766
104766
104766
104766
104766
104766
104766
104765
104765
104765
104765
104765
104765
104765
104764
104764
104764
104764
104764
104764
104764
104763
104763
104763
104763
104763
104763
104762
104762
104762
104762
104762
104762
104762
104761
104761
104761
104761
104761
104761
104760
104760
104760
104760
104760
104760
104760
104759
104759
104759
104759
104759
104759
104759
104758
104758
104758
104758
104758
104758
104758
104757
104757
104757
104757
104757
104757
104757
104757
104756
104756
104756
104756
104756
104756
104756
104737
)
;

boundaryField
{
    frontHeated
    {
        type            fixedFluxPressure;
        gradient        uniform -8.3327;
        value           uniform 100014;
    }
    backOutlet
    {
        type            prghTotalPressure;
        rho             thermo:rho;
        psi             none;
        gamma           1;
        p0              uniform 100000;
        value           uniform 100003;
        rho             thermo:rho;
    }
    defaultFaces
    {
        type            empty;
    }
}


// ************************************************************************* //
