/*--------------------------------*- C++ -*----------------------------------*\
  =========                 |
  \\      /  F ield         | OpenFOAM: The Open Source CFD Toolbox
   \\    /   O peration     | Website:  https://openfoam.org
    \\  /    A nd           | Version:  dev
     \\/     M anipulation  |
\*---------------------------------------------------------------------------*/
FoamFile
{
    format      ascii;
    class       volScalarField;
    location    "0.0451722";
    object      p;
}
// * * * * * * * * * * * * * * * * * * * * * * * * * * * * * * * * * * * * * //

dimensions      [1 -1 -2 0 0 0 0];

internalField   nonuniform List<scalar> 
100
(
46442.5
46442.5
46442.5
46442.5
46442.5
46442.4
46442.4
46442.3
46442.2
46442.1
46441.9
46441.8
46441.7
46441.5
46441.3
46441.1
46440.9
46414
45926.5
45426.1
44973.1
44520.2
44058.2
43594.7
43128.9
42659.7
42186.2
41708
41224.6
40736
40242.8
39745.7
39245.5
38743
38239
37733.9
37228.1
36721.8
36215.3
35708.6
35201.7
34694.8
34187.9
33680.9
33173.9
32666.9
32160
31652.9
31145.9
30638.9
30131.9
29624.9
29117.9
28610.9
28103.9
27596.9
27089.9
26582.9
26075.9
25568.9
25061.9
24554.9
24047.9
23540.8
23033.8
22526.8
22019.8
21512.8
21005.8
20498.8
19991.8
19484.8
18977.8
18470.8
17963.8
17456.8
16949.8
16442.7
15935.7
15428.7
14921.7
14414.7
13907.7
13400.7
12893.6
12386.4
11879.1
11371.2
10862.3
10348.7
10000
10000
10000
10000
10000
10000
10000
10000
10000
10000
)
;

boundaryField
{
    frontHeated
    {
        type            calculated;
        value           uniform 46442.5;
    }
    backOutlet
    {
        type            calculated;
        value           uniform 10000;
    }
    defaultFaces
    {
        type            empty;
    }
}


// ************************************************************************* //
