/*--------------------------------*- C++ -*----------------------------------*\
  =========                 |
  \\      /  F ield         | OpenFOAM: The Open Source CFD Toolbox
   \\    /   O peration     | Website:  https://openfoam.org
    \\  /    A nd           | Version:  dev
     \\/     M anipulation  |
\*---------------------------------------------------------------------------*/
FoamFile
{
    format      ascii;
    class       volScalarField;
    location    "0.0451722";
    object      T;
}
// * * * * * * * * * * * * * * * * * * * * * * * * * * * * * * * * * * * * * //

dimensions      [0 0 0 1 0 0 0];

internalField   nonuniform List<scalar> 
100
(
316.438
315.542
315.354
315.311
315.315
315.338
315.364
315.377
315.343
315.354
315.622
316.093
319.765
327.965
341.244
359.281
385.003
385.116
385.125
385.132
385.137
385.141
385.144
385.146
385.148
385.149
385.15
385.15
385.151
385.151
385.151
385.151
385.151
385.151
385.151
385.151
385.151
385.151
385.151
385.151
385.151
385.151
385.151
385.151
385.151
385.151
385.151
385.151
385.151
385.151
385.151
385.151
385.151
385.151
385.151
385.151
385.151
385.151
385.151
385.151
385.151
385.151
385.151
385.151
385.151
385.151
385.151
385.151
385.151
385.151
385.151
385.151
385.151
385.151
385.151
385.151
385.151
385.151
385.151
385.151
385.151
385.151
385.151
385.151
385.151
385.151
385.151
385.151
385.151
385.151
385.151
385.151
385.151
385.151
385.151
385.151
385.151
385.15
385.15
385.15
)
;

boundaryField
{
    frontHeated
    {
        type            fixedValue;
        value           uniform 385.15;
    }
    backOutlet
    {
        type            fixedValue;
        value           uniform 385.15;
    }
    defaultFaces
    {
        type            empty;
    }
}


// ************************************************************************* //
