/*--------------------------------*- C++ -*----------------------------------*\
  =========                 |
  \\      /  F ield         | OpenFOAM: The Open Source CFD Toolbox
   \\    /   O peration     | Website:  https://openfoam.org
    \\  /    A nd           | Version:  dev
     \\/     M anipulation  |
\*---------------------------------------------------------------------------*/
FoamFile
{
    format      ascii;
    class       volScalarField;
    location    "0.0340351";
    object      p;
}
// * * * * * * * * * * * * * * * * * * * * * * * * * * * * * * * * * * * * * //

dimensions      [1 -1 -2 0 0 0 0];

internalField   nonuniform List<scalar> 
100
(
58795.1
58795.1
58795
58795
58794.9
58794.8
58794.7
58794.5
58794.3
58794.1
58793.8
58793.6
58793.4
58793.1
58745.3
58221.8
57649
57100.7
56547.2
55984.1
55417
54840.3
54252.8
53655.4
53048.9
52435
51815.5
51192.4
50567
49940.1
49312.4
48684.2
48055.7
47427
46798.2
46169.4
45540.6
44911.7
44282.9
43654
43025.1
42396.3
41767.4
41138.5
40509.6
39880.8
39251.9
38623
37994.1
37365.3
36736.4
36107.5
35478.6
34849.8
34220.9
33592
32963.1
32334.3
31705.4
31076.5
30447.6
29818.8
29189.9
28561
27932.1
27303.3
26674.4
26045.5
25416.6
24787.8
24158.9
23530
22901.1
22272.3
21643.4
21014.5
20385.6
19756.8
19127.9
18499
17870.1
17241.2
16612.3
15983.4
15354.3
14725
14095.2
13464.1
12829.4
12189.2
11542.4
10874.5
10002.5
10000
10000
10000
10000
10000
10000
10000
)
;

boundaryField
{
    frontHeated
    {
        type            calculated;
        value           uniform 58795.1;
    }
    backOutlet
    {
        type            calculated;
        value           uniform 10000;
    }
    defaultFaces
    {
        type            empty;
    }
}


// ************************************************************************* //
