/*--------------------------------*- C++ -*----------------------------------*\
  =========                 |
  \\      /  F ield         | OpenFOAM: The Open Source CFD Toolbox
   \\    /   O peration     | Website:  https://openfoam.org
    \\  /    A nd           | Version:  dev
     \\/     M anipulation  |
\*---------------------------------------------------------------------------*/
FoamFile
{
    format      ascii;
    class       volScalarField;
    location    "0.141316";
    object      epsilon;
}
// * * * * * * * * * * * * * * * * * * * * * * * * * * * * * * * * * * * * * //

dimensions      [0 2 -3 0 0 0 0];

internalField   nonuniform List<scalar> 
100
(
0.167221
0.10364
0.0953758
0.0972479
0.1019
0.107312
0.112798
0.118055
0.122923
0.12732
0.131211
0.134578
0.137418
0.139738
0.141553
0.142888
0.143777
0.14426
0.144385
0.144204
0.143771
0.143138
0.142348
0.141437
0.140426
0.139322
0.138118
0.136799
0.135337
0.133704
0.131875
0.129828
0.127553
0.125055
0.12235
0.119476
0.116486
0.113451
0.110468
0.107653
0.105154
0.103156
0.101891
0.101663
0.102871
0.10606
0.111997
0.121796
0.137159
0.160918
0.198114
0.259569
0.364048
0.88801
106.07
3.51237
2.32857
1.39547
0.957662
0.725782
0.587026
0.496153
0.432371
0.385003
0.348077
0.318035
0.292674
0.270601
0.250924
0.233082
0.216726
0.201646
0.187721
0.174884
0.163096
0.152329
0.142557
0.133748
0.125865
0.118861
0.112684
0.107274
0.102571
0.0985096
0.0950278
0.0920632
0.0895572
0.0874547
0.085705
0.0842626
0.0830872
0.0821443
0.0814062
0.0808631
0.0806036
0.0814963
0.0905111
0.181208
1.28717
3.39771
)
;

boundaryField
{
    frontHeated
    {
        type            epsilonWallFunction;
        value           uniform 0.167221;
    }
    backOutlet
    {
        type            inletOutlet;
        inletValue      uniform 0.1;
        value           uniform 3.39771;
    }
    defaultFaces
    {
        type            empty;
    }
}


// ************************************************************************* //
