/*--------------------------------*- C++ -*----------------------------------*\
  =========                 |
  \\      /  F ield         | OpenFOAM: The Open Source CFD Toolbox
   \\    /   O peration     | Website:  https://openfoam.org
    \\  /    A nd           | Version:  dev
     \\/     M anipulation  |
\*---------------------------------------------------------------------------*/
FoamFile
{
    format      ascii;
    class       volScalarField;
    location    "0.141316";
    object      p;
}
// * * * * * * * * * * * * * * * * * * * * * * * * * * * * * * * * * * * * * //

dimensions      [1 -1 -2 0 0 0 0];

internalField   nonuniform List<scalar> 
100
(
11054
11054
11054
11054
11054
11054
11054
11054
11054
11054
11054
11054
11054
11054
11054
11054
11054
11054.1
11054.1
11054.1
11054.1
11054.1
11054.1
11054.1
11054.2
11054.2
11054.2
11054.2
11054.2
11054.2
11054.3
11054.3
11054.3
11054.3
11054.3
11054.4
11054.4
11054.4
11054.4
11054.4
11054.4
11054.5
11054.5
11054.5
11054.5
11054.5
11054.5
11054.5
11054.5
11054.5
11054.5
11054.5
11054.5
11054.5
11053.9
11054.9
10791.2
10882.2
10812.9
10736.3
10688.1
10640.2
10590.1
10541.7
10493.8
10445.6
10397.3
10348.9
10300.5
10251.9
10203.3
10154.6
10105.8
10056.9
10008.4
10000
10000
10000
10000
10000
10000
10000
10000
10000
10000
10000
10000
10000
10000
10000
10000
10000
10000
10000
10000
10000
10000
10000
10000
10000
)
;

boundaryField
{
    frontHeated
    {
        type            calculated;
        value           uniform 11054;
    }
    backOutlet
    {
        type            calculated;
        value           uniform 10000;
    }
    defaultFaces
    {
        type            empty;
    }
}


// ************************************************************************* //
