/*--------------------------------*- C++ -*----------------------------------*\
  =========                 |
  \\      /  F ield         | OpenFOAM: The Open Source CFD Toolbox
   \\    /   O peration     | Website:  https://openfoam.org
    \\  /    A nd           | Version:  dev
     \\/     M anipulation  |
\*---------------------------------------------------------------------------*/
FoamFile
{
    format      ascii;
    class       volScalarField;
    location    "0.141316";
    object      rhoSmear;
}
// * * * * * * * * * * * * * * * * * * * * * * * * * * * * * * * * * * * * * //

dimensions      [1 -3 -1 0 0 0 0];

internalField   nonuniform List<scalar> 
100
(
9.44223e-14
1.04914e-13
1.27062e-13
1.63329e-13
2.17743e-13
2.9635e-13
4.07886e-13
5.64742e-13
7.84347e-13
1.0911e-12
1.51909e-12
2.11587e-12
2.94774e-12
4.10714e-12
5.72289e-12
7.97451e-12
1.11122e-11
1.54846e-11
2.15774e-11
3.00678e-11
4.1899e-11
5.83857e-11
8.13597e-11
1.13374e-10
1.57985e-10
2.2015e-10
3.06776e-10
4.27488e-10
5.95698e-10
8.30098e-10
1.15673e-09
1.61189e-09
2.24615e-09
3.12997e-09
4.36158e-09
6.0778e-09
8.46934e-09
1.18019e-08
1.64458e-08
2.2917e-08
3.19345e-08
4.45004e-08
6.20107e-08
8.64111e-08
1.20413e-07
1.67793e-07
2.33818e-07
3.25822e-07
4.54029e-07
6.32684e-07
8.81636e-07
1.22855e-06
1.71197e-06
2.3856e-06
3.3243e-06
0
0
0
0
0
0
0
0
0
0
-3.3243e-06
-2.3856e-06
-1.71197e-06
-1.22855e-06
-8.81636e-07
-6.32684e-07
-4.54029e-07
-3.25822e-07
-2.33818e-07
-1.67793e-07
-1.20413e-07
-8.64111e-08
-6.20107e-08
-4.45004e-08
-3.19346e-08
-2.29171e-08
-1.64459e-08
-1.1802e-08
-8.46948e-09
-6.07801e-09
-4.36187e-09
-3.13038e-09
-2.24671e-09
-1.61267e-09
-1.15782e-09
-8.31616e-10
-5.97813e-10
-4.30435e-10
-3.10882e-10
-2.25872e-10
-1.65959e-10
-1.24486e-10
-9.68441e-11
-7.9963e-11
-7.19667e-11
)
;

boundaryField
{
    frontHeated
    {
        type            zeroGradient;
    }
    backOutlet
    {
        type            zeroGradient;
    }
    defaultFaces
    {
        type            empty;
    }
}


// ************************************************************************* //
