/*--------------------------------*- C++ -*----------------------------------*\
  =========                 |
  \\      /  F ield         | OpenFOAM: The Open Source CFD Toolbox
   \\    /   O peration     | Website:  https://openfoam.org
    \\  /    A nd           | Version:  dev
     \\/     M anipulation  |
\*---------------------------------------------------------------------------*/
FoamFile
{
    format      ascii;
    class       volVectorField;
    location    "0.234192";
    object      U;
}
// * * * * * * * * * * * * * * * * * * * * * * * * * * * * * * * * * * * * * //

dimensions      [0 1 -1 0 0 0 0];

internalField   nonuniform List<vector> 
100
(
(0.0299699 0 0)
(0.0798436 0 0)
(0.122813 0 0)
(0.162954 0 0)
(0.202432 0 0)
(0.241974 0 0)
(0.281681 0 0)
(0.321493 0 0)
(0.361347 0 0)
(0.401212 0 0)
(0.441079 0 0)
(0.48095 0 0)
(0.520825 0 0)
(0.560707 0 0)
(0.600598 0 0)
(0.640504 0 0)
(0.680429 0 0)
(0.72038 0 0)
(0.760365 0 0)
(0.800391 0 0)
(0.840464 0 0)
(0.880591 0 0)
(0.920776 0 0)
(0.961021 0 0)
(1.00133 0 0)
(1.04169 0 0)
(1.08211 0 0)
(1.12256 0 0)
(1.16305 0 0)
(1.20353 0 0)
(1.244 0 0)
(1.28441 0 0)
(1.32471 0 0)
(1.36487 0 0)
(1.40483 0 0)
(1.44451 0 0)
(1.48384 0 0)
(1.52274 0 0)
(1.56112 0 0)
(1.59889 0 0)
(1.63595 0 0)
(1.67222 0 0)
(1.70757 0 0)
(1.74189 0 0)
(1.77508 0 0)
(1.807 0 0)
(1.83755 0 0)
(1.86666 0 0)
(1.89424 0 0)
(1.92023 0 0)
(1.94458 0 0)
(1.96723 0 0)
(1.98811 0 0)
(2.00719 0 0)
(2.02441 0 0)
(2.03974 0 0)
(2.05312 0 0)
(2.06455 0 0)
(2.074 0 0)
(2.08147 0 0)
(2.08696 0 0)
(2.09048 0 0)
(2.09207 0 0)
(2.09176 0 0)
(2.08962 0 0)
(2.08573 0 0)
(2.08024 0 0)
(2.07332 0 0)
(2.06517 0 0)
(2.05598 0 0)
(2.04587 0 0)
(2.03488 0 0)
(2.02285 0 0)
(2.00944 0 0)
(1.99401 0 0)
(1.97565 0 0)
(1.9533 0 0)
(1.92593 0 0)
(1.89289 0 0)
(1.8542 0 0)
(1.81062 0 0)
(1.76455 0 0)
(1.71902 0 0)
(1.67614 0 0)
(1.64044 0 0)
(1.62143 0 0)
(1.62717 0 0)
(1.64534 0 0)
(1.6628 0 0)
(1.69057 0 0)
(1.72011 0 0)
(1.77435 0 0)
(1.85795 0 0)
(1.9428 0 0)
(2.25155 0 0)
(3.32361 0 0)
(4.44592 0 0)
(4.77834 0 0)
(3.86431 0 0)
(8.08953 0 0)
)
;

boundaryField
{
    frontHeated
    {
        type            noSlip;
    }
    backOutlet
    {
        type            pressureInletOutletVelocity;
        value           uniform (8.08953 0 0);
    }
    defaultFaces
    {
        type            empty;
    }
}


// ************************************************************************* //
