/*--------------------------------*- C++ -*----------------------------------*\
  =========                 |
  \\      /  F ield         | OpenFOAM: The Open Source CFD Toolbox
   \\    /   O peration     | Website:  https://openfoam.org
    \\  /    A nd           | Version:  dev
     \\/     M anipulation  |
\*---------------------------------------------------------------------------*/
FoamFile
{
    format      ascii;
    class       volVectorField;
    location    "0.215578";
    object      U;
}
// * * * * * * * * * * * * * * * * * * * * * * * * * * * * * * * * * * * * * //

dimensions      [0 1 -1 0 0 0 0];

internalField   nonuniform List<vector> 
100
(
(0.0333384 0 0)
(0.0873818 0 0)
(0.13434 0 0)
(0.178908 0 0)
(0.223132 0 0)
(0.267509 0 0)
(0.312018 0 0)
(0.35657 0 0)
(0.401122 0 0)
(0.445667 0 0)
(0.49021 0 0)
(0.534757 0 0)
(0.579311 0 0)
(0.623875 0 0)
(0.668454 0 0)
(0.713055 0 0)
(0.757684 0 0)
(0.802351 0 0)
(0.847063 0 0)
(0.891828 0 0)
(0.936651 0 0)
(0.981537 0 0)
(1.02649 0 0)
(1.0715 0 0)
(1.11656 0 0)
(1.16168 0 0)
(1.20682 0 0)
(1.25197 0 0)
(1.2971 0 0)
(1.34217 0 0)
(1.38713 0 0)
(1.43193 0 0)
(1.47651 0 0)
(1.52078 0 0)
(1.56466 0 0)
(1.60806 0 0)
(1.65087 0 0)
(1.69302 0 0)
(1.73439 0 0)
(1.77487 0 0)
(1.81433 0 0)
(1.85261 0 0)
(1.88961 0 0)
(1.9252 0 0)
(1.95931 0 0)
(1.99188 0 0)
(2.02284 0 0)
(2.05214 0 0)
(2.07971 0 0)
(2.10547 0 0)
(2.12936 0 0)
(2.15133 0 0)
(2.17132 0 0)
(2.18931 0 0)
(2.20526 0 0)
(2.21916 0 0)
(2.23099 0 0)
(2.24077 0 0)
(2.24852 0 0)
(2.25428 0 0)
(2.25808 0 0)
(2.26001 0 0)
(2.26025 0 0)
(2.25913 0 0)
(2.25697 0 0)
(2.25402 0 0)
(2.25039 0 0)
(2.24592 0 0)
(2.24013 0 0)
(2.23197 0 0)
(2.21978 0 0)
(2.20148 0 0)
(2.17505 0 0)
(2.13931 0 0)
(2.09457 0 0)
(2.04317 0 0)
(1.98951 0 0)
(1.93974 0 0)
(1.9009 0 0)
(1.88001 0 0)
(1.88392 0 0)
(1.91141 0 0)
(1.99995 0 0)
(2.07512 0 0)
(2.11869 0 0)
(2.22352 0 0)
(2.45747 0 0)
(2.89939 0 0)
(3.41089 0 0)
(4.5258 0 0)
(4.57091 0 0)
(4.60888 0 0)
(4.65679 0 0)
(4.66457 0 0)
(4.65683 0 0)
(4.65835 0 0)
(4.62474 0 0)
(4.75666 0 0)
(4.15663 0 0)
(6.79963 0 0)
)
;

boundaryField
{
    frontHeated
    {
        type            noSlip;
    }
    backOutlet
    {
        type            pressureInletOutletVelocity;
        value           uniform (6.79963 0 0);
    }
    defaultFaces
    {
        type            empty;
    }
}


// ************************************************************************* //
