/*--------------------------------*- C++ -*----------------------------------*\
  =========                 |
  \\      /  F ield         | OpenFOAM: The Open Source CFD Toolbox
   \\    /   O peration     | Website:  https://openfoam.org
    \\  /    A nd           | Version:  dev
     \\/     M anipulation  |
\*---------------------------------------------------------------------------*/
FoamFile
{
    format      ascii;
    class       volScalarField;
    location    "0.115032";
    object      p;
}
// * * * * * * * * * * * * * * * * * * * * * * * * * * * * * * * * * * * * * //

dimensions      [1 -1 -2 0 0 0 0];

internalField   nonuniform List<scalar> 
100
(
14617.1
14617.1
14617.1
14617.1
14617.1
14617.1
14617.1
14617.1
14617.1
14617.1
14617.1
14617.1
14617.1
14617
14617
14617
14617
14617
14617
14617
14617
14617
14617
14617
14617
14617
14616.9
14616.9
14616.9
14616.9
14616.9
14616.9
14616.8
14616.8
14616.8
14616.7
14616.7
14616.6
14616.6
14616.5
14616.5
14616.4
14616
14616.5
14570.7
14283.5
14111.7
14015.4
13916.5
13809.5
13705.9
13603.2
13500.1
13396.7
13293.3
13189.8
13086
12982.1
12878
12773.7
12669.1
12564.3
12459.2
12353.8
12248.1
12142.1
12035.9
11929.4
11822.6
11715.5
11608.3
11500.9
11393.3
11285.6
11177.8
11069.8
10961.9
10853.8
10745.7
10637.6
10529.4
10421.2
10313
10204.6
10095.9
10000
10000
10000
10000
10000
10000
10000
10000
10000
10000
10000
10000
10000
10000
10000
)
;

boundaryField
{
    frontHeated
    {
        type            calculated;
        value           uniform 14617.1;
    }
    backOutlet
    {
        type            calculated;
        value           uniform 10000;
    }
    defaultFaces
    {
        type            empty;
    }
}


// ************************************************************************* //
