/*--------------------------------*- C++ -*----------------------------------*\
  =========                 |
  \\      /  F ield         | OpenFOAM: The Open Source CFD Toolbox
   \\    /   O peration     | Website:  https://openfoam.org
    \\  /    A nd           | Version:  dev
     \\/     M anipulation  |
\*---------------------------------------------------------------------------*/
FoamFile
{
    format      ascii;
    class       volScalarField;
    location    "0.0965975";
    object      p_rgh;
}
// * * * * * * * * * * * * * * * * * * * * * * * * * * * * * * * * * * * * * //

dimensions      [1 -1 -2 0 0 0 0];

internalField   nonuniform List<scalar> 
100
(
18683.8
18683.8
18683.8
18683.8
18683.8
18683.8
18683.8
18683.8
18683.8
18683.8
18683.8
18683.8
18683.7
18683.7
18683.7
18683.7
18683.7
18683.7
18683.6
18683.6
18683.6
18683.6
18683.5
18683.5
18683.4
18683.4
18683.3
18683.2
18683.1
18683.1
18683
18682.9
18682.7
18682.6
18682.3
18682.4
20437.4
22619.3
22585
22560.2
22471.9
22345.6
22208.4
22063
21911.9
21758
21602.2
21445.3
21287.6
21129.2
20970.2
20810.6
20650.5
20489.7
20328.3
20166.4
20003.8
19840.6
19677
19512.8
19348.3
19183.4
19018.2
18852.7
18687.1
18521.3
18355.4
18189.4
18023.4
17857.3
17691.1
17524.9
17358.7
17192.5
17026.3
16860
16693.8
16527.6
16361.3
16195
16028.8
15862.5
15696.3
15530
15363.8
15197.5
15031
14866.1
14755.7
14755.7
14755.7
14755.7
14755.7
14755.7
14755.7
14755.7
14755.7
14755.7
14755.7
14755.7
)
;

boundaryField
{
    frontHeated
    {
        type            fixedFluxPressure;
        gradient        uniform -51.1895;
        value           uniform 18683.6;
    }
    backOutlet
    {
        type            prghTotalPressure;
        rho             thermo:rho;
        psi             none;
        gamma           1;
        p0              uniform 0;
        value           uniform 4755.66;
        rho             thermo:rho;
    }
    defaultFaces
    {
        type            empty;
    }
}


// ************************************************************************* //
