/*--------------------------------*- C++ -*----------------------------------*\
  =========                 |
  \\      /  F ield         | OpenFOAM: The Open Source CFD Toolbox
   \\    /   O peration     | Website:  https://openfoam.org
    \\  /    A nd           | Version:  dev
     \\/     M anipulation  |
\*---------------------------------------------------------------------------*/
FoamFile
{
    format      ascii;
    class       volScalarField;
    location    "0.0965975";
    object      rhoSmear;
}
// * * * * * * * * * * * * * * * * * * * * * * * * * * * * * * * * * * * * * //

dimensions      [1 -3 -1 0 0 0 0];

internalField   nonuniform List<scalar> 
100
(
1.63597e-09
1.81775e-09
2.20149e-09
2.82985e-09
3.77264e-09
5.1346e-09
7.06708e-09
9.78479e-09
1.35897e-08
1.89046e-08
2.63199e-08
3.66598e-08
5.10729e-08
7.11608e-08
9.91554e-08
1.38167e-07
1.92531e-07
2.68287e-07
3.73853e-07
5.20959e-07
7.25948e-07
1.0116e-06
1.40965e-06
1.96433e-06
2.73726e-06
3.81434e-06
5.31523e-06
7.4067e-06
1.03211e-05
1.43824e-05
2.00417e-05
2.79278e-05
3.8917e-05
5.42303e-05
7.55692e-05
0.000105305
0
0
0
0
0
0
0
0
0
0
-0.000105305
-7.55692e-05
-5.42303e-05
-3.8917e-05
-2.79278e-05
-2.00417e-05
-1.43824e-05
-1.03211e-05
-7.4067e-06
-5.31523e-06
-3.81434e-06
-2.73726e-06
-1.96433e-06
-1.40965e-06
-1.0116e-06
-7.25947e-07
-5.20957e-07
-3.73852e-07
-2.68285e-07
-1.92528e-07
-1.38163e-07
-9.91489e-08
-7.11516e-08
-5.10601e-08
-3.6642e-08
-2.62952e-08
-1.88701e-08
-1.35416e-08
-9.7178e-09
-6.97373e-09
-5.00452e-09
-3.59136e-09
-2.57725e-09
-1.8495e-09
-1.32725e-09
-9.52467e-10
-6.83516e-10
-4.90512e-10
-3.52009e-10
-2.52618e-10
-1.81296e-10
-1.30118e-10
-9.33981e-11
-6.70554e-11
-4.81632e-11
-3.46225e-11
-2.49287e-11
-1.80048e-11
-1.30814e-11
-9.61155e-12
-7.20961e-12
-5.60875e-12
-4.63108e-12
-4.16797e-12
)
;

boundaryField
{
    frontHeated
    {
        type            zeroGradient;
    }
    backOutlet
    {
        type            zeroGradient;
    }
    defaultFaces
    {
        type            empty;
    }
}


// ************************************************************************* //
