/*--------------------------------*- C++ -*----------------------------------*\
  =========                 |
  \\      /  F ield         | OpenFOAM: The Open Source CFD Toolbox
   \\    /   O peration     | Website:  https://openfoam.org
    \\  /    A nd           | Version:  dev
     \\/     M anipulation  |
\*---------------------------------------------------------------------------*/
FoamFile
{
    format      ascii;
    class       volScalarField;
    location    "0.0965975";
    object      T;
}
// * * * * * * * * * * * * * * * * * * * * * * * * * * * * * * * * * * * * * //

dimensions      [0 0 0 1 0 0 0];

internalField   nonuniform List<scalar> 
100
(
257.298
251.867
250.647
250.265
250.168
250.2
250.299
250.43
250.572
250.708
250.826
250.917
250.976
251.005
251.019
251.047
251.142
251.373
251.826
252.594
253.768
255.442
257.699
260.624
264.298
268.804
274.232
280.681
288.262
297.105
307.36
319.216
332.795
349.066
362.523
385.113
385.122
385.125
385.128
385.131
385.134
385.137
385.139
385.141
385.143
385.145
385.147
385.148
385.149
385.15
385.15
385.151
385.151
385.152
385.152
385.152
385.152
385.152
385.152
385.152
385.153
385.153
385.153
385.153
385.153
385.153
385.153
385.153
385.153
385.153
385.153
385.153
385.153
385.153
385.153
385.153
385.153
385.153
385.153
385.153
385.153
385.153
385.153
385.153
385.153
385.153
385.153
385.153
385.153
385.153
385.153
385.153
385.153
385.153
385.153
385.153
385.153
385.153
385.152
385.149
)
;

boundaryField
{
    frontHeated
    {
        type            fixedValue;
        value           uniform 385.15;
    }
    backOutlet
    {
        type            fixedValue;
        value           uniform 385.15;
    }
    defaultFaces
    {
        type            empty;
    }
}


// ************************************************************************* //
