/*--------------------------------*- C++ -*----------------------------------*\
  =========                 |
  \\      /  F ield         | OpenFOAM: The Open Source CFD Toolbox
   \\    /   O peration     | Website:  https://openfoam.org
    \\  /    A nd           | Version:  dev
     \\/     M anipulation  |
\*---------------------------------------------------------------------------*/
FoamFile
{
    format      ascii;
    class       surfaceScalarField;
    location    "0.242568";
    object      phi;
}
// * * * * * * * * * * * * * * * * * * * * * * * * * * * * * * * * * * * * * //

dimensions      [0 3 -1 0 0 0 0];

internalField   nonuniform List<scalar> 
99
(
0.0608991
0.1121
0.161425
0.210046
0.258341
0.306475
0.354533
0.402559
0.450581
0.498617
0.54668
0.59478
0.642925
0.691124
0.739384
0.787711
0.836112
0.884594
0.933165
0.98183
1.0306
1.07948
1.12847
1.17759
1.22685
1.27625
1.32579
1.3755
1.42538
1.47544
1.52569
1.57613
1.62679
1.67767
1.72879
1.78015
1.83177
1.88367
1.93585
1.98834
2.04115
2.09429
2.14779
2.20166
2.25593
2.31061
2.36574
2.42134
2.47743
2.53405
2.59124
2.64902
2.70744
2.76654
2.82636
2.88696
2.94839
3.0107
3.07395
3.13822
3.20357
3.27007
3.33781
3.40687
3.47734
3.54931
3.62288
3.69816
3.77525
3.85428
3.93537
4.01865
4.10426
4.19234
4.28303
4.37648
4.47283
4.57224
4.67486
4.78083
4.89033
5.00351
5.12057
5.24169
5.36705
5.49679
5.63114
5.77038
5.91506
6.06558
6.22184
6.38491
6.5536
6.72815
6.90624
7.0957
7.6544
8.49964
11.0561
)
;

boundaryField
{
    frontHeated
    {
        type            calculated;
        value           uniform 0;
    }
    backOutlet
    {
        type            calculated;
        value           uniform 19.0327;
    }
    defaultFaces
    {
        type            empty;
        value           nonuniform List<scalar> 0();
    }
}


// ************************************************************************* //
