/*--------------------------------*- C++ -*----------------------------------*\
  =========                 |
  \\      /  F ield         | OpenFOAM: The Open Source CFD Toolbox
   \\    /   O peration     | Website:  https://openfoam.org
    \\  /    A nd           | Version:  dev
     \\/     M anipulation  |
\*---------------------------------------------------------------------------*/
FoamFile
{
    format      ascii;
    class       volScalarField;
    location    "0.242568";
    object      T;
}
// * * * * * * * * * * * * * * * * * * * * * * * * * * * * * * * * * * * * * //

dimensions      [0 0 0 1 0 0 0];

internalField   nonuniform List<scalar> 
100
(
241.875
204.59
192.898
188.04
185.688
184.429
183.709
183.279
183.018
182.86
182.769
182.722
182.707
182.714
182.737
182.771
182.813
182.86
182.911
182.964
183.017
183.07
183.121
183.17
183.216
183.26
183.301
183.339
183.375
183.409
183.442
183.475
183.509
183.546
183.587
183.634
183.69
183.757
183.837
183.933
184.049
184.186
184.349
184.541
184.765
185.025
185.323
185.664
186.051
186.488
186.977
187.522
188.128
188.796
189.532
190.337
191.215
192.171
193.207
194.326
195.533
196.83
198.222
199.711
201.301
202.995
204.796
206.708
208.733
210.874
213.135
215.519
218.032
220.68
223.47
226.408
229.502
232.76
236.188
239.789
243.566
247.519
251.642
255.93
260.374
264.956
269.652
274.435
279.292
284.258
289.402
294.744
300.441
306.44
312.711
318.915
326.321
384.903
385.038
376.622
)
;

boundaryField
{
    frontHeated
    {
        type            fixedValue;
        value           uniform 385.15;
    }
    backOutlet
    {
        type            fixedValue;
        value           uniform 385.15;
    }
    defaultFaces
    {
        type            empty;
    }
}


// ************************************************************************* //
