/*--------------------------------*- C++ -*----------------------------------*\
  =========                 |
  \\      /  F ield         | OpenFOAM: The Open Source CFD Toolbox
   \\    /   O peration     | Website:  https://openfoam.org
    \\  /    A nd           | Version:  dev
     \\/     M anipulation  |
\*---------------------------------------------------------------------------*/
FoamFile
{
    format      ascii;
    class       volScalarField;
    location    "0.242568";
    object      thermo:rho;
}
// * * * * * * * * * * * * * * * * * * * * * * * * * * * * * * * * * * * * * //

dimensions      [1 -3 0 0 0 0 0];

internalField   nonuniform List<scalar> 
100
(
0.0895048
0.105817
0.112231
0.11513
0.116588
0.117384
0.117844
0.11812
0.118289
0.118391
0.11845
0.11848
0.11849
0.118486
0.118471
0.118449
0.118422
0.118391
0.118358
0.118324
0.11829
0.118256
0.118223
0.118191
0.118161
0.118133
0.118106
0.118082
0.118058
0.118037
0.118015
0.117994
0.117972
0.117949
0.117922
0.117892
0.117856
0.117813
0.117762
0.1177
0.117627
0.117539
0.117435
0.117312
0.11717
0.117006
0.116817
0.116603
0.11636
0.116088
0.115784
0.115448
0.115076
0.114669
0.114224
0.113741
0.113218
0.112655
0.112051
0.111406
0.110718
0.109988
0.109216
0.108402
0.107546
0.106648
0.10571
0.104732
0.103716
0.102663
0.101574
0.100451
0.0992926
0.0981012
0.0968767
0.0956195
0.0943302
0.0930099
0.0916602
0.0902836
0.0888834
0.0874641
0.086031
0.0845895
0.0831459
0.0817079
0.0802851
0.0788857
0.077514
0.0761597
0.0748061
0.0734503
0.0720574
0.0706469
0.0692301
0.0678833
0.0663427
11.8003
41.6422
41.7611
)
;

boundaryField
{
    frontHeated
    {
        type            calculated;
        value           uniform 0.0562093;
    }
    backOutlet
    {
        type            calculated;
        value           uniform 41.6411;
    }
    defaultFaces
    {
        type            empty;
    }
}


// ************************************************************************* //
