/*--------------------------------*- C++ -*----------------------------------*\
  =========                 |
  \\      /  F ield         | OpenFOAM: The Open Source CFD Toolbox
   \\    /   O peration     | Website:  https://openfoam.org
    \\  /    A nd           | Version:  dev
     \\/     M anipulation  |
\*---------------------------------------------------------------------------*/
FoamFile
{
    format      ascii;
    class       volVectorField;
    location    "0.242568";
    object      U;
}
// * * * * * * * * * * * * * * * * * * * * * * * * * * * * * * * * * * * * * //

dimensions      [0 1 -1 0 0 0 0];

internalField   nonuniform List<vector> 
100
(
(0.0285666 0 0)
(0.076684 0 0)
(0.118025 0 0)
(0.156377 0 0)
(0.193925 0 0)
(0.231478 0 0)
(0.269199 0 0)
(0.307046 0 0)
(0.344955 0 0)
(0.382887 0 0)
(0.420827 0 0)
(0.458769 0 0)
(0.496715 0 0)
(0.534666 0 0)
(0.572624 0 0)
(0.610591 0 0)
(0.648573 0 0)
(0.686575 0 0)
(0.724604 0 0)
(0.762665 0 0)
(0.800767 0 0)
(0.838914 0 0)
(0.877113 0 0)
(0.915366 0 0)
(0.953677 0 0)
(0.992043 0 0)
(1.03046 0 0)
(1.06893 0 0)
(1.10743 0 0)
(1.14595 0 0)
(1.18446 0 0)
(1.22296 0 0)
(1.26139 0 0)
(1.29972 0 0)
(1.3379 0 0)
(1.37589 0 0)
(1.41361 0 0)
(1.45099 0 0)
(1.48796 0 0)
(1.52444 0 0)
(1.56033 0 0)
(1.59556 0 0)
(1.63002 0 0)
(1.66362 0 0)
(1.69625 0 0)
(1.72779 0 0)
(1.75814 0 0)
(1.7872 0 0)
(1.81488 0 0)
(1.84109 0 0)
(1.86577 0 0)
(1.88886 0 0)
(1.9103 0 0)
(1.93006 0 0)
(1.94806 0 0)
(1.96428 0 0)
(1.97866 0 0)
(1.99117 0 0)
(2.00179 0 0)
(2.01049 0 0)
(2.01726 0 0)
(2.02211 0 0)
(2.02504 0 0)
(2.02607 0 0)
(2.02523 0 0)
(2.02257 0 0)
(2.01815 0 0)
(2.01205 0 0)
(2.0044 0 0)
(1.99534 0 0)
(1.98503 0 0)
(1.97363 0 0)
(1.96126 0 0)
(1.94798 0 0)
(1.93374 0 0)
(1.91834 0 0)
(1.9014 0 0)
(1.88236 0 0)
(1.86048 0 0)
(1.83502 0 0)
(1.80531 0 0)
(1.77102 0 0)
(1.73248 0 0)
(1.69074 0 0)
(1.6472 0 0)
(1.60375 0 0)
(1.56349 0 0)
(1.53145 0 0)
(1.51343 0 0)
(1.50899 0 0)
(1.51363 0 0)
(1.52189 0 0)
(1.53118 0 0)
(1.56304 0 0)
(1.6237 0 0)
(1.65083 0 0)
(1.20518 0 0)
(4.40447 0 0)
(0.639681 0 0)
(21.6606 0 0)
)
;

boundaryField
{
    frontHeated
    {
        type            noSlip;
    }
    backOutlet
    {
        type            pressureInletOutletVelocity;
        value           uniform (21.6606 0 0);
    }
    defaultFaces
    {
        type            empty;
    }
}


// ************************************************************************* //
