/*--------------------------------*- C++ -*----------------------------------*\
  =========                 |
  \\      /  F ield         | OpenFOAM: The Open Source CFD Toolbox
   \\    /   O peration     | Website:  https://openfoam.org
    \\  /    A nd           | Version:  dev
     \\/     M anipulation  |
\*---------------------------------------------------------------------------*/
FoamFile
{
    format      ascii;
    class       volScalarField;
    location    "0.128351";
    object      p;
}
// * * * * * * * * * * * * * * * * * * * * * * * * * * * * * * * * * * * * * //

dimensions      [1 -1 -2 0 0 0 0];

internalField   nonuniform List<scalar> 
100
(
12541.2
12541.2
12541.2
12541.2
12541.2
12541.2
12541.2
12541.2
12541.2
12541.2
12541.2
12541.2
12541.2
12541.2
12541.2
12541.2
12541.2
12541.2
12541.2
12541.2
12541.2
12541.2
12541.2
12541.3
12541.3
12541.3
12541.3
12541.3
12541.3
12541.3
12541.3
12541.3
12541.3
12541.3
12541.2
12541.2
12541.2
12541.2
12541.2
12541.2
12541.2
12541.1
12541.1
12541.1
12541.1
12541
12541
12541
12540.5
12541.1
12373.4
12219.3
12098.4
12022.2
11953.7
11879.2
11806.1
11734
11661.5
11588.6
11515.7
11442.8
11369.7
11296.5
11223.2
11149.8
11076.2
11002.6
10928.7
10854.7
10780.6
10706.3
10631.8
10557.2
10482.4
10407.4
10332.4
10257.2
10181.9
10106.4
10030.5
10000
10000
10000
10000
10000
10000
10000
10000
10000
10000
10000
10000
10000
10000
10000
10000
10000
10000
10000
)
;

boundaryField
{
    frontHeated
    {
        type            calculated;
        value           uniform 12541.2;
    }
    backOutlet
    {
        type            calculated;
        value           uniform 10000;
    }
    defaultFaces
    {
        type            empty;
    }
}


// ************************************************************************* //
