/*--------------------------------*- C++ -*----------------------------------*\
  =========                 |
  \\      /  F ield         | OpenFOAM: The Open Source CFD Toolbox
   \\    /   O peration     | Website:  https://openfoam.org
    \\  /    A nd           | Version:  dev
     \\/     M anipulation  |
\*---------------------------------------------------------------------------*/
FoamFile
{
    format      ascii;
    class       volScalarField;
    location    "0.128351";
    object      T;
}
// * * * * * * * * * * * * * * * * * * * * * * * * * * * * * * * * * * * * * //

dimensions      [0 0 0 1 0 0 0];

internalField   nonuniform List<scalar> 
100
(
241.464
230.179
227.51
226.569
226.187
226.043
226.017
226.059
226.139
226.241
226.352
226.465
226.572
226.667
226.749
226.814
226.865
226.906
226.944
226.991
227.065
227.185
227.378
227.671
228.093
228.678
229.455
230.457
231.714
233.258
235.117
237.323
239.906
242.897
246.332
250.244
254.674
259.664
265.261
271.514
278.478
286.21
294.763
304.186
314.499
325.755
337.504
352.26
352.723
385.122
385.126
385.128
385.13
385.132
385.134
385.136
385.138
385.14
385.142
385.143
385.145
385.146
385.147
385.148
385.149
385.15
385.15
385.151
385.151
385.152
385.152
385.152
385.152
385.152
385.153
385.153
385.153
385.153
385.153
385.153
385.153
385.153
385.153
385.153
385.153
385.153
385.153
385.153
385.153
385.153
385.153
385.153
385.153
385.153
385.153
385.153
385.153
385.153
385.153
385.15
)
;

boundaryField
{
    frontHeated
    {
        type            fixedValue;
        value           uniform 385.15;
    }
    backOutlet
    {
        type            fixedValue;
        value           uniform 385.15;
    }
    defaultFaces
    {
        type            empty;
    }
}


// ************************************************************************* //
