/*--------------------------------*- C++ -*----------------------------------*\
  =========                 |
  \\      /  F ield         | OpenFOAM: The Open Source CFD Toolbox
   \\    /   O peration     | Website:  https://openfoam.org
    \\  /    A nd           | Version:  dev
     \\/     M anipulation  |
\*---------------------------------------------------------------------------*/
FoamFile
{
    format      ascii;
    class       volScalarField;
    location    "0.244242";
    object      T;
}
// * * * * * * * * * * * * * * * * * * * * * * * * * * * * * * * * * * * * * //

dimensions      [0 0 0 1 0 0 0];

internalField   nonuniform List<scalar> 
100
(
241.978
204.433
192.599
187.666
185.271
183.987
183.251
182.811
182.542
182.378
182.282
182.232
182.214
182.218
182.238
182.27
182.309
182.354
182.403
182.454
182.505
182.556
182.605
182.653
182.698
182.74
182.779
182.816
182.85
182.882
182.913
182.943
182.974
183.007
183.044
183.086
183.136
183.195
183.267
183.354
183.458
183.584
183.732
183.908
184.113
184.352
184.627
184.942
185.3
185.705
186.16
186.667
187.231
187.855
188.541
189.294
190.115
191.009
191.978
193.026
194.156
195.37
196.673
198.066
199.554
201.139
202.824
204.611
206.502
208.501
210.61
212.833
215.172
217.632
220.22
222.939
225.798
228.802
231.956
235.264
238.73
242.353
246.131
250.058
254.126
258.325
262.636
267.035
271.503
276.041
280.683
285.454
290.436
295.66
301.142
306.852
308.799
383.695
384.719
350.326
)
;

boundaryField
{
    frontHeated
    {
        type            fixedValue;
        value           uniform 385.15;
    }
    backOutlet
    {
        type            fixedValue;
        value           uniform 385.15;
    }
    defaultFaces
    {
        type            empty;
    }
}


// ************************************************************************* //
