/*--------------------------------*- C++ -*----------------------------------*\
  =========                 |
  \\      /  F ield         | OpenFOAM: The Open Source CFD Toolbox
   \\    /   O peration     | Website:  https://openfoam.org
    \\  /    A nd           | Version:  dev
     \\/     M anipulation  |
\*---------------------------------------------------------------------------*/
FoamFile
{
    format      ascii;
    class       volScalarField;
    location    "0.244242";
    object      thermo:rho;
}
// * * * * * * * * * * * * * * * * * * * * * * * * * * * * * * * * * * * * * //

dimensions      [1 -3 0 0 0 0 0];

internalField   nonuniform List<scalar> 
100
(
0.0894668
0.105898
0.112404
0.115359
0.11685
0.117666
0.118138
0.118423
0.118598
0.118704
0.118766
0.118799
0.118811
0.118808
0.118795
0.118775
0.118749
0.118719
0.118688
0.118655
0.118621
0.118588
0.118556
0.118525
0.118496
0.118469
0.118443
0.11842
0.118398
0.118377
0.118357
0.118337
0.118317
0.118296
0.118272
0.118245
0.118213
0.118174
0.118128
0.118072
0.118005
0.117925
0.117829
0.117717
0.117585
0.117433
0.117258
0.117058
0.116832
0.116577
0.116293
0.115976
0.115627
0.115243
0.114824
0.114367
0.113873
0.11334
0.112768
0.112156
0.111503
0.11081
0.110076
0.109302
0.108487
0.107632
0.106738
0.105806
0.104837
0.103831
0.102792
0.101718
0.100613
0.0994752
0.0983065
0.0971072
0.0958778
0.0946191
0.0933325
0.0920199
0.0906839
0.0893282
0.0879573
0.086576
0.0851899
0.0838052
0.0824298
0.0810717
0.0797377
0.0784269
0.0771297
0.0758406
0.0745398
0.0732227
0.0718896
0.070552
0.0701071
2.71403
11.0332
11.1607
)
;

boundaryField
{
    frontHeated
    {
        type            calculated;
        value           uniform 0.0562093;
    }
    backOutlet
    {
        type            calculated;
        value           uniform 11.0317;
    }
    defaultFaces
    {
        type            empty;
    }
}


// ************************************************************************* //
