/*--------------------------------*- C++ -*----------------------------------*\
  =========                 |
  \\      /  F ield         | OpenFOAM: The Open Source CFD Toolbox
   \\    /   O peration     | Website:  https://openfoam.org
    \\  /    A nd           | Version:  dev
     \\/     M anipulation  |
\*---------------------------------------------------------------------------*/
FoamFile
{
    format      ascii;
    class       volVectorField;
    location    "5.097373";
    object      U;
}
// * * * * * * * * * * * * * * * * * * * * * * * * * * * * * * * * * * * * * //

dimensions      [0 1 -1 0 0 0 0];

internalField   nonuniform List<vector> 
100
(
(2.62609e-05 0 0)
(5.7798e-05 0 0)
(7.68635e-05 0 0)
(8.35367e-05 0 0)
(7.58917e-05 0 0)
(4.23697e-05 0 0)
(7.78944e-06 0 0)
(-4.91163e-05 0 0)
(-0.000139688 0 0)
(-0.000237017 0 0)
(3.31434e-05 0 0)
(-0.000223144 0 0)
(-0.000358325 0 0)
(-0.000416228 0 0)
(-0.000449189 0 0)
(-0.000468604 0 0)
(-0.000480339 0 0)
(-0.000487162 0 0)
(-0.000491522 0 0)
(-0.000494272 0 0)
(-0.000496329 0 0)
(-0.000497755 0 0)
(-0.000498893 0 0)
(-0.000499742 0 0)
(-0.000500444 0 0)
(-0.000501 0 0)
(-0.000501468 0 0)
(-0.000501856 0 0)
(-0.000502189 0 0)
(-0.000502472 0 0)
(-0.000502718 0 0)
(-0.000502932 0 0)
(-0.00050312 0 0)
(-0.000503285 0 0)
(-0.000503431 0 0)
(-0.000503561 0 0)
(-0.000503676 0 0)
(-0.000503778 0 0)
(-0.000503868 0 0)
(-0.000503949 0 0)
(-0.00050402 0 0)
(-0.000504082 0 0)
(-0.000504137 0 0)
(-0.000504184 0 0)
(-0.000504225 0 0)
(-0.000504259 0 0)
(-0.000504286 0 0)
(-0.000504308 0 0)
(-0.000504324 0 0)
(-0.000504334 0 0)
(-0.000504339 0 0)
(-0.000504338 0 0)
(-0.000504332 0 0)
(-0.00050432 0 0)
(-0.000504303 0 0)
(-0.00050428 0 0)
(-0.000504252 0 0)
(-0.000504217 0 0)
(-0.000504177 0 0)
(-0.00050413 0 0)
(-0.000504077 0 0)
(-0.000504016 0 0)
(-0.000503948 0 0)
(-0.000503873 0 0)
(-0.000503789 0 0)
(-0.000503697 0 0)
(-0.000503595 0 0)
(-0.000503483 0 0)
(-0.00050336 0 0)
(-0.000503225 0 0)
(-0.000503078 0 0)
(-0.000502916 0 0)
(-0.000502739 0 0)
(-0.000502546 0 0)
(-0.000502334 0 0)
(-0.000502101 0 0)
(-0.000501845 0 0)
(-0.000501563 0 0)
(-0.000501251 0 0)
(-0.000500906 0 0)
(-0.000500523 0 0)
(-0.000500093 0 0)
(-0.00049961 0 0)
(-0.000499061 0 0)
(-0.000498434 0 0)
(-0.000497706 0 0)
(-0.00049685 0 0)
(-0.00049583 0 0)
(-0.000494578 0 0)
(-0.000492986 0 0)
(-0.000490689 0 0)
(-0.000487032 0 0)
(-0.00047974 0 0)
(-0.000466158 0 0)
(-0.000443358 0 0)
(-0.000411785 0 0)
(-0.000363459 0 0)
(-0.000251256 0 0)
(-5.18977e-05 0 0)
(-5.90823e-06 0 0)
)
;

boundaryField
{
    frontHeated
    {
        type            noSlip;
    }
    backOutlet
    {
        type            pressureInletOutletVelocity;
        value           uniform (-5.90823e-06 0 0);
    }
    defaultFaces
    {
        type            empty;
    }
}


// ************************************************************************* //
