/*--------------------------------*- C++ -*----------------------------------*\
  =========                 |
  \\      /  F ield         | OpenFOAM: The Open Source CFD Toolbox
   \\    /   O peration     | Website:  https://openfoam.org
    \\  /    A nd           | Version:  dev
     \\/     M anipulation  |
\*---------------------------------------------------------------------------*/
FoamFile
{
    format      ascii;
    class       volScalarField;
    location    "0.231186";
    object      rhoSmear;
}
// * * * * * * * * * * * * * * * * * * * * * * * * * * * * * * * * * * * * * //

dimensions      [1 -3 -1 0 0 0 0];

internalField   nonuniform List<scalar> 
100
(
9.4218e-20
1.04687e-19
1.26787e-19
1.62975e-19
2.17271e-19
2.95709e-19
4.07003e-19
5.6352e-19
7.8265e-19
1.08874e-18
1.5158e-18
2.11129e-18
2.94136e-18
4.09825e-18
5.7105e-18
7.95726e-18
1.10881e-17
1.54511e-17
2.15307e-17
3.00027e-17
4.18084e-17
5.82594e-17
8.11837e-17
1.13128e-16
1.57643e-16
2.19673e-16
3.06112e-16
4.26563e-16
5.94409e-16
8.28302e-16
1.15423e-15
1.6084e-15
2.24129e-15
3.1232e-15
4.35214e-15
6.06465e-15
8.45101e-15
1.17764e-14
1.64102e-14
2.28674e-14
3.18655e-14
4.44041e-14
6.18765e-14
8.62241e-14
1.20152e-13
1.6743e-13
2.33312e-13
3.25117e-13
4.53047e-13
6.31315e-13
8.79729e-13
1.22589e-12
1.70826e-12
2.38044e-12
3.31711e-12
4.62235e-12
6.44119e-12
8.97571e-12
1.25075e-11
1.74291e-11
2.42872e-11
3.38439e-11
4.7161e-11
6.57182e-11
9.15775e-11
1.27612e-10
1.77826e-10
2.47798e-10
3.45303e-10
4.81175e-10
6.70511e-10
9.34348e-10
1.302e-09
1.81432e-09
2.52823e-09
3.52306e-09
4.90934e-09
6.8411e-09
9.53298e-09
1.32841e-08
1.85112e-08
2.57951e-08
3.59451e-08
5.00891e-08
6.97985e-08
9.72633e-08
1.35535e-07
1.88866e-07
2.63183e-07
3.66742e-07
5.1105e-07
7.12141e-07
9.92359e-07
1.38284e-06
1.92697e-06
0
0
0
0
0
)
;

boundaryField
{
    frontHeated
    {
        type            zeroGradient;
    }
    backOutlet
    {
        type            zeroGradient;
    }
    defaultFaces
    {
        type            empty;
    }
}


// ************************************************************************* //
