/*--------------------------------*- C++ -*----------------------------------*\
  =========                 |
  \\      /  F ield         | OpenFOAM: The Open Source CFD Toolbox
   \\    /   O peration     | Website:  https://openfoam.org
    \\  /    A nd           | Version:  dev
     \\/     M anipulation  |
\*---------------------------------------------------------------------------*/
FoamFile
{
    format      ascii;
    class       volScalarField;
    location    "0.231186";
    object      thermo:rho;
}
// * * * * * * * * * * * * * * * * * * * * * * * * * * * * * * * * * * * * * //

dimensions      [1 -3 0 0 0 0 0];

internalField   nonuniform List<scalar> 
100
(
0.0898972
0.105323
0.111133
0.113688
0.114951
0.115631
0.116018
0.116247
0.116383
0.116462
0.116503
0.11652
0.116518
0.116505
0.116483
0.116455
0.116423
0.116388
0.116351
0.116315
0.116279
0.116243
0.11621
0.116178
0.116148
0.11612
0.116093
0.116069
0.116046
0.116023
0.116
0.115975
0.115948
0.115918
0.115881
0.115838
0.115786
0.115724
0.115648
0.115557
0.115448
0.11532
0.115169
0.114994
0.114792
0.114561
0.114299
0.114003
0.113672
0.113304
0.112897
0.112449
0.111959
0.111426
0.110849
0.110227
0.109558
0.108843
0.108081
0.107272
0.106416
0.105512
0.104562
0.103567
0.102527
0.101444
0.10032
0.0991564
0.097954
0.0967141
0.095437
0.0941228
0.0927715
0.0913834
0.0899595
0.0885015
0.0870129
0.0854985
0.0839642
0.0824177
0.0808664
0.0793208
0.0777859
0.0762713
0.0747994
0.0733859
0.0720133
0.0706274
0.0691728
0.0675741
0.0660442
0.0644414
0.0625753
0.0614342
0.05778
76.8718
595.325
608.098
608.098
523.772
)
;

boundaryField
{
    frontHeated
    {
        type            calculated;
        value           uniform 0.0562093;
    }
    backOutlet
    {
        type            calculated;
        value           uniform 523.689;
    }
    defaultFaces
    {
        type            empty;
    }
}


// ************************************************************************* //
