/*--------------------------------*- C++ -*----------------------------------*\
  =========                 |
  \\      /  F ield         | OpenFOAM: The Open Source CFD Toolbox
   \\    /   O peration     | Website:  https://openfoam.org
    \\  /    A nd           | Version:  dev
     \\/     M anipulation  |
\*---------------------------------------------------------------------------*/
FoamFile
{
    format      ascii;
    class       volScalarField;
    location    "0.0717075";
    object      epsilon;
}
// * * * * * * * * * * * * * * * * * * * * * * * * * * * * * * * * * * * * * //

dimensions      [0 2 -3 0 0 0 0];

internalField   nonuniform List<scalar> 
100
(
0.284763
0.214548
0.214627
0.21676
0.21704
0.21685
0.216786
0.21704
0.217905
0.219799
0.223234
0.229079
0.239641
0.258599
0.289545
0.334531
0.394144
0.469242
0.563426
0.685926
0.856107
1.1115
1.53369
2.34176
4.14765
10.3212
7.00287
5.20093
3.26467
2.27244
1.69831
1.32695
1.06357
0.863815
0.705786
0.57804
0.47405
0.38959
0.32151
0.26719
0.224325
0.190866
0.165013
0.145222
0.130199
0.118883
0.110421
0.104138
0.0995044
0.0961109
0.0936423
0.0918586
0.0905782
0.0896651
0.089018
0.0885623
0.0882433
0.0880212
0.0878675
0.0877616
0.0876892
0.0876398
0.0876063
0.0875836
0.0875684
0.0875582
0.0875515
0.087547
0.087544
0.087542
0.0875407
0.0875399
0.0875393
0.087539
0.0875388
0.0875386
0.0875385
0.0875384
0.0875384
0.0875384
0.0875384
0.0875385
0.0875388
0.0875398
0.087543
0.087554
0.0875944
0.0877537
0.088413
0.0909862
0.0983244
0.115732
0.156612
0.258846
0.535075
1.33131
3.66485
9.85996
22.6187
28.0238
)
;

boundaryField
{
    frontHeated
    {
        type            epsilonWallFunction;
        value           uniform 0.284763;
    }
    backOutlet
    {
        type            inletOutlet;
        inletValue      uniform 0.1;
        value           uniform 28.0238;
    }
    defaultFaces
    {
        type            empty;
    }
}


// ************************************************************************* //
