/*--------------------------------*- C++ -*----------------------------------*\
  =========                 |
  \\      /  F ield         | OpenFOAM: The Open Source CFD Toolbox
   \\    /   O peration     | Website:  https://openfoam.org
    \\  /    A nd           | Version:  dev
     \\/     M anipulation  |
\*---------------------------------------------------------------------------*/
FoamFile
{
    format      ascii;
    class       volScalarField;
    location    "0.0717075";
    object      p;
}
// * * * * * * * * * * * * * * * * * * * * * * * * * * * * * * * * * * * * * //

dimensions      [1 -1 -2 0 0 0 0];

internalField   nonuniform List<scalar> 
100
(
27807.5
27807.5
27807.5
27807.5
27807.5
27807.4
27807.4
27807.4
27807.4
27807.3
27807.3
27807.3
27807.2
27807.2
27807.1
27807.1
27807
27807
27806.9
27806.8
27806.7
27806.6
27806.4
27806.3
27806.1
27806
27881.4
27449.6
27121.4
26864.8
26602
26332.4
26066.1
25800.4
25534.5
25268.2
25001.4
24733.9
24465.3
24195.5
23924.3
23651.7
23377.5
23101.9
22824.9
22546.6
22267.4
21987.3
21706.5
21425.2
21143.4
20861.4
20579.2
20296.9
20014.4
19731.8
19449.2
19166.6
18883.9
18601.3
18318.6
18035.9
17753.2
17470.4
17187.7
16905
16622.3
16339.6
16056.9
15774.2
15491.5
15208.7
14926
14643.3
14360.6
14077.9
13795.2
13512.4
13229.7
12947
12664.3
12381.6
12098.9
11816.1
11533.4
11250.7
10968
10684.7
10403.3
10119.3
10000
10000
10000
10000
10000
10000
10000
10000
10000
10000
)
;

boundaryField
{
    frontHeated
    {
        type            calculated;
        value           uniform 27807.5;
    }
    backOutlet
    {
        type            calculated;
        value           uniform 10000;
    }
    defaultFaces
    {
        type            empty;
    }
}


// ************************************************************************* //
