/*--------------------------------*- C++ -*----------------------------------*\
  =========                 |
  \\      /  F ield         | OpenFOAM: The Open Source CFD Toolbox
   \\    /   O peration     | Website:  https://openfoam.org
    \\  /    A nd           | Version:  dev
     \\/     M anipulation  |
\*---------------------------------------------------------------------------*/
FoamFile
{
    format      ascii;
    class       volScalarField;
    location    "0.0717075";
    object      thermo:rho;
}
// * * * * * * * * * * * * * * * * * * * * * * * * * * * * * * * * * * * * * //

dimensions      [1 -3 0 0 0 0 0];

internalField   nonuniform List<scalar> 
100
(
0.215017
0.216986
0.217406
0.217495
0.217461
0.217369
0.217254
0.21714
0.217048
0.216991
0.21697
0.216989
0.217014
0.216931
0.216544
0.215619
0.213948
0.211373
0.207798
0.203177
0.197508
0.190819
0.183176
0.174588
0.16566
0.152775
144.91
859.758
907.661
934.645
949.859
958.441
963.282
966.014
967.556
968.426
968.917
969.194
969.35
969.438
969.488
969.516
969.532
969.541
969.546
969.549
969.55
969.551
969.552
969.552
969.552
969.552
969.552
969.552
969.552
969.552
969.552
969.552
969.552
969.552
969.552
969.552
969.552
969.552
969.552
969.552
969.552
969.552
969.552
969.552
969.552
969.552
969.552
969.552
969.552
969.552
969.552
969.552
969.552
969.552
969.552
969.552
969.552
969.552
969.552
969.552
969.552
969.552
969.552
969.552
969.552
969.552
969.552
969.552
969.552
969.552
969.552
969.553
969.553
969.553
)
;

boundaryField
{
    frontHeated
    {
        type            calculated;
        value           uniform 0.156304;
    }
    backOutlet
    {
        type            calculated;
        value           uniform 969.553;
    }
    defaultFaces
    {
        type            empty;
    }
}


// ************************************************************************* //
