/*--------------------------------*- C++ -*----------------------------------*\
  =========                 |
  \\      /  F ield         | OpenFOAM: The Open Source CFD Toolbox
   \\    /   O peration     | Website:  https://openfoam.org
    \\  /    A nd           | Version:  dev
     \\/     M anipulation  |
\*---------------------------------------------------------------------------*/
FoamFile
{
    format      ascii;
    class       volScalarField;
    location    "0.00892992";
    object      epsilon;
}
// * * * * * * * * * * * * * * * * * * * * * * * * * * * * * * * * * * * * * //

dimensions      [0 2 -3 0 0 0 0];

internalField   nonuniform List<scalar> 
100
(
2.03777
0.375134
0.15429
0.111519
0.103735
0.11189
0.161252
0.476234
4.90356
40.6951
1.59411
0.449896
0.155486
0.109904
0.100612
0.0987335
0.098382
0.0983209
0.0983108
0.0983092
0.098309
0.098309
0.0983089
0.0983089
0.0983089
0.0983089
0.0983089
0.0983089
0.0983089
0.0983089
0.0983089
0.0983089
0.0983089
0.0983089
0.0983089
0.0983089
0.0983089
0.0983089
0.0983089
0.0983089
0.0983089
0.0983089
0.0983089
0.0983089
0.0983089
0.0983089
0.0983089
0.0983089
0.0983089
0.0983089
0.0983089
0.0983089
0.0983089
0.0983089
0.0983089
0.0983089
0.0983089
0.0983089
0.0983089
0.0983089
0.0983089
0.0983089
0.0983089
0.0983089
0.0983089
0.0983089
0.0983089
0.0983089
0.0983089
0.0983089
0.0983089
0.0983089
0.0983089
0.0983089
0.0983089
0.0983089
0.0983089
0.0983089
0.0983089
0.0983089
0.0983089
0.0983089
0.0983089
0.0983089
0.0983089
0.0983089
0.0983089
0.0983089
0.0983089
0.0983089
0.098309
0.0983093
0.0983112
0.0983237
0.0984025
0.0988735
0.101515
0.115479
0.193964
0.89027
)
;

boundaryField
{
    frontHeated
    {
        type            epsilonWallFunction;
        value           uniform 2.03777;
    }
    backOutlet
    {
        type            inletOutlet;
        inletValue      uniform 0.1;
        value           uniform 0.1;
    }
    defaultFaces
    {
        type            empty;
    }
}


// ************************************************************************* //
