/*--------------------------------*- C++ -*----------------------------------*\
  =========                 |
  \\      /  F ield         | OpenFOAM: The Open Source CFD Toolbox
   \\    /   O peration     | Website:  https://openfoam.org
    \\  /    A nd           | Version:  dev
     \\/     M anipulation  |
\*---------------------------------------------------------------------------*/
FoamFile
{
    format      ascii;
    class       volScalarField;
    location    "0.00892992";
    object      p;
}
// * * * * * * * * * * * * * * * * * * * * * * * * * * * * * * * * * * * * * //

dimensions      [1 -1 -2 0 0 0 0];

internalField   nonuniform List<scalar> 
100
(
94284.7
94284.7
94284.6
94284.4
94284.2
94283.9
94283.5
94283.1
94282.7
94282.1
94280.2
93662.2
92436.5
91300.4
90219.1
89127.3
88027.2
86927
85827.4
84727.9
83628.3
82528.7
81429.1
80329.5
79229.9
78130.3
77030.7
75931.1
74831.5
73731.9
72632.3
71532.7
70433.1
69333.5
68233.9
67134.3
66034.7
64935.1
63835.5
62735.9
61636.3
60536.7
59437.1
58337.5
57237.9
56138.3
55038.7
53939.1
52839.5
51739.9
50640.3
49540.7
48441.1
47341.5
46241.9
45142.3
44042.7
42943.1
41843.5
40743.9
39644.3
38544.7
37445.1
36345.5
35245.9
34146.3
33046.7
31947.1
30847.5
29747.9
28648.3
27548.7
26449.1
25349.5
24249.9
23150.2
22050.6
20951
19851.4
18751.8
17652.2
16552.6
15453
14353.8
13255.6
12148.3
10975
10000
10000
10000
10000
10000
10000
10000
10000
10000
10000
10000
10000
10000
)
;

boundaryField
{
    frontHeated
    {
        type            calculated;
        value           uniform 94284.7;
    }
    backOutlet
    {
        type            calculated;
        value           uniform 10000;
    }
    defaultFaces
    {
        type            empty;
    }
}


// ************************************************************************* //
