/*--------------------------------*- C++ -*----------------------------------*\
  =========                 |
  \\      /  F ield         | OpenFOAM: The Open Source CFD Toolbox
   \\    /   O peration     | Website:  https://openfoam.org
    \\  /    A nd           | Version:  dev
     \\/     M anipulation  |
\*---------------------------------------------------------------------------*/
FoamFile
{
    format      ascii;
    class       volScalarField;
    location    "0.00892992";
    object      rhoSmear;
}
// * * * * * * * * * * * * * * * * * * * * * * * * * * * * * * * * * * * * * //

dimensions      [1 -3 -1 0 0 0 0];

internalField   nonuniform List<scalar> 
100
(
4.4725e-06
4.96945e-06
6.01855e-06
7.73638e-06
1.03138e-05
1.40372e-05
1.93203e-05
2.67501e-05
3.71522e-05
5.16822e-05
0
0
0
-5.15202e-05
-3.69722e-05
-2.65321e-05
-1.90401e-05
-1.36636e-05
-9.80536e-06
-7.03656e-06
-5.04961e-06
-3.62372e-06
-2.60047e-06
-1.86616e-06
-1.3392e-06
-9.61044e-07
-6.89669e-07
-4.94923e-07
-3.55169e-07
-2.54878e-07
-1.82907e-07
-1.31258e-07
-9.4194e-08
-6.75959e-08
-4.85085e-08
-3.48109e-08
-2.49811e-08
-1.79271e-08
-1.28649e-08
-9.23216e-09
-6.62522e-09
-4.75442e-09
-3.41189e-09
-2.44845e-09
-1.75707e-09
-1.26092e-09
-9.04864e-10
-6.49353e-10
-4.65991e-10
-3.34407e-10
-2.39978e-10
-1.72214e-10
-1.23585e-10
-8.86877e-11
-6.36444e-11
-4.56728e-11
-3.27759e-11
-2.35208e-11
-1.68791e-11
-1.21128e-11
-8.69247e-12
-6.23793e-12
-4.47649e-12
-3.21244e-12
-2.30532e-12
-1.65436e-12
-1.18721e-12
-8.51968e-13
-6.11393e-13
-4.3875e-13
-3.14858e-13
-2.2595e-13
-1.62147e-13
-1.16361e-13
-8.35032e-14
-5.9924e-14
-4.30029e-14
-3.08599e-14
-2.21458e-14
-1.58924e-14
-1.14048e-14
-8.18437e-15
-5.87333e-15
-4.21488e-15
-3.02475e-15
-2.1707e-15
-1.55785e-15
-1.11808e-15
-8.02553e-16
-5.76194e-16
-4.13857e-16
-2.97505e-16
-2.14208e-16
-1.54712e-16
-1.12406e-16
-8.25903e-17
-6.19509e-17
-4.81949e-17
-3.9794e-17
-3.58146e-17
)
;

boundaryField
{
    frontHeated
    {
        type            zeroGradient;
    }
    backOutlet
    {
        type            zeroGradient;
    }
    defaultFaces
    {
        type            empty;
    }
}


// ************************************************************************* //
