/*--------------------------------*- C++ -*----------------------------------*\
  =========                 |
  \\      /  F ield         | OpenFOAM: The Open Source CFD Toolbox
   \\    /   O peration     | Website:  https://openfoam.org
    \\  /    A nd           | Version:  dev
     \\/     M anipulation  |
\*---------------------------------------------------------------------------*/
FoamFile
{
    format      ascii;
    class       volScalarField;
    location    "0.00892992";
    object      T;
}
// * * * * * * * * * * * * * * * * * * * * * * * * * * * * * * * * * * * * * //

dimensions      [0 0 0 1 0 0 0];

internalField   nonuniform List<scalar> 
100
(
374.332
374.264
374.262
374.266
374.269
374.273
374.284
374.333
374.664
382.961
385.132
385.145
385.149
385.15
385.15
385.15
385.15
385.15
385.15
385.15
385.15
385.15
385.15
385.15
385.15
385.15
385.15
385.15
385.15
385.15
385.15
385.15
385.15
385.15
385.15
385.15
385.15
385.15
385.15
385.15
385.15
385.15
385.15
385.15
385.15
385.15
385.15
385.15
385.15
385.15
385.15
385.15
385.15
385.15
385.15
385.15
385.15
385.15
385.15
385.15
385.15
385.15
385.15
385.15
385.15
385.15
385.15
385.15
385.15
385.15
385.15
385.15
385.15
385.15
385.15
385.15
385.15
385.15
385.15
385.15
385.15
385.15
385.15
385.15
385.15
385.15
385.15
385.15
385.15
385.15
385.15
385.15
385.15
385.15
385.15
385.15
385.15
385.15
385.15
385.15
)
;

boundaryField
{
    frontHeated
    {
        type            fixedValue;
        value           uniform 385.15;
    }
    backOutlet
    {
        type            fixedValue;
        value           uniform 385.15;
    }
    defaultFaces
    {
        type            empty;
    }
}


// ************************************************************************* //
