/*--------------------------------*- C++ -*----------------------------------*\
  =========                 |
  \\      /  F ield         | OpenFOAM: The Open Source CFD Toolbox
   \\    /   O peration     | Website:  https://openfoam.org
    \\  /    A nd           | Version:  dev
     \\/     M anipulation  |
\*---------------------------------------------------------------------------*/
FoamFile
{
    format      ascii;
    class       volVectorField;
    location    "0.00892992";
    object      U;
}
// * * * * * * * * * * * * * * * * * * * * * * * * * * * * * * * * * * * * * //

dimensions      [0 1 -1 0 0 0 0];

internalField   nonuniform List<vector> 
100
(
(0.0463396 0 0)
(0.133501 0 0)
(0.22163 0 0)
(0.30873 0 0)
(0.397754 0 0)
(0.486851 0 0)
(0.574036 0 0)
(0.661121 0 0)
(0.800691 0 0)
(1.05378 0 0)
(0.837255 0 0)
(0.861472 0 0)
(0.994195 0 0)
(1.00392 0 0)
(0.996712 0 0)
(0.995425 0 0)
(0.996017 0 0)
(0.996172 0 0)
(0.996139 0 0)
(0.996128 0 0)
(0.996129 0 0)
(0.99613 0 0)
(0.99613 0 0)
(0.99613 0 0)
(0.99613 0 0)
(0.99613 0 0)
(0.99613 0 0)
(0.99613 0 0)
(0.99613 0 0)
(0.99613 0 0)
(0.99613 0 0)
(0.99613 0 0)
(0.99613 0 0)
(0.99613 0 0)
(0.99613 0 0)
(0.99613 0 0)
(0.99613 0 0)
(0.996131 0 0)
(0.996131 0 0)
(0.996131 0 0)
(0.996131 0 0)
(0.996131 0 0)
(0.996131 0 0)
(0.996131 0 0)
(0.996131 0 0)
(0.996131 0 0)
(0.996131 0 0)
(0.996131 0 0)
(0.996131 0 0)
(0.996131 0 0)
(0.996131 0 0)
(0.996131 0 0)
(0.996132 0 0)
(0.996132 0 0)
(0.996132 0 0)
(0.996132 0 0)
(0.996132 0 0)
(0.996132 0 0)
(0.996132 0 0)
(0.996132 0 0)
(0.996132 0 0)
(0.996132 0 0)
(0.996132 0 0)
(0.996132 0 0)
(0.996132 0 0)
(0.996132 0 0)
(0.996133 0 0)
(0.996133 0 0)
(0.996133 0 0)
(0.996133 0 0)
(0.996133 0 0)
(0.996133 0 0)
(0.996133 0 0)
(0.996133 0 0)
(0.996133 0 0)
(0.996133 0 0)
(0.996133 0 0)
(0.996133 0 0)
(0.996133 0 0)
(0.996134 0 0)
(0.996135 0 0)
(0.996126 0 0)
(0.99612 0 0)
(0.996072 0 0)
(0.996971 0 0)
(1.00148 0 0)
(0.947856 0 0)
(0.759306 0 0)
(0.573533 0 0)
(0.443458 0 0)
(0.305369 0 0)
(0.182542 0 0)
(0.0846568 0 0)
(0.0330832 0 0)
(0.0293515 0 0)
(0.132057 0 0)
(0.548098 0 0)
(1.24402 0 0)
(2.05545 0 0)
(3.07459 0 0)
)
;

boundaryField
{
    frontHeated
    {
        type            noSlip;
    }
    backOutlet
    {
        type            pressureInletOutletVelocity;
        value           uniform (3.07459 0 0);
    }
    defaultFaces
    {
        type            empty;
    }
}


// ************************************************************************* //
