/*--------------------------------*- C++ -*----------------------------------*\
  =========                 |
  \\      /  F ield         | OpenFOAM: The Open Source CFD Toolbox
   \\    /   O peration     | Website:  https://openfoam.org
    \\  /    A nd           | Version:  dev
     \\/     M anipulation  |
\*---------------------------------------------------------------------------*/
FoamFile
{
    format      ascii;
    class       volScalarField;
    location    "0.566377";
    object      p;
}
// * * * * * * * * * * * * * * * * * * * * * * * * * * * * * * * * * * * * * //

dimensions      [1 -1 -2 0 0 0 0];

internalField   nonuniform List<scalar> 
100
(
99987.6
99987.6
99987.6
99987.6
99987.6
99987.6
99987.6
99987.6
99987.6
99987.6
99987.6
99987.6
99987.6
99987.7
99987.7
99987.8
99987.9
99987.9
99988.1
99988.2
99988.3
99988.4
99988.6
99988.7
99988.8
99989
99989.1
99989.3
99989.4
99989.6
99989.8
99989.9
99990.1
99990.2
99990.4
99990.6
99990.7
99990.9
99991.1
99991.2
99991.4
99991.6
99991.7
99991.9
99992
99992.2
99992.4
99992.5
99992.7
99992.9
99993
99993.2
99993.4
99993.5
99993.7
99993.8
99994
99994.2
99994.3
99994.5
99994.7
99994.8
99995
99995.2
99995.3
99995.5
99995.6
99995.8
99996
99996.1
99996.3
99996.5
99996.6
99996.8
99996.9
99997.1
99997.3
99997.4
99997.6
99997.8
99997.9
99998.1
99998.2
99998.4
99998.5
99998.7
99998.8
99999
99999.1
99999.2
99999.4
99999.5
99999.6
99999.7
99999.8
99999.8
99999.9
99999.9
100000
100000
)
;

boundaryField
{
    frontHeated
    {
        type            calculated;
        value           uniform 99987.6;
    }
    backOutlet
    {
        type            calculated;
        value           uniform 100000;
    }
    defaultFaces
    {
        type            empty;
    }
}


// ************************************************************************* //
