/*--------------------------------*- C++ -*----------------------------------*\
  =========                 |
  \\      /  F ield         | OpenFOAM: The Open Source CFD Toolbox
   \\    /   O peration     | Website:  https://openfoam.org
    \\  /    A nd           | Version:  dev
     \\/     M anipulation  |
\*---------------------------------------------------------------------------*/
FoamFile
{
    format      ascii;
    class       volVectorField;
    location    "0.566377";
    object      U;
}
// * * * * * * * * * * * * * * * * * * * * * * * * * * * * * * * * * * * * * //

dimensions      [0 1 -1 0 0 0 0];

internalField   nonuniform List<vector> 
100
(
(0.000106053 0 0)
(0.000210725 0 0)
(0.000352748 0 0)
(0.000475294 0 0)
(0.000553811 0 0)
(0.000565159 0 0)
(0.000500331 0 0)
(0.000341525 0 0)
(0.000268677 0 0)
(0.000153472 0 0)
(0.000187085 0 0)
(0.000166964 0 0)
(0.000121924 0 0)
(9.55704e-05 0 0)
(7.85181e-05 0 0)
(6.79309e-05 0 0)
(6.11614e-05 0 0)
(5.67639e-05 0 0)
(5.38101e-05 0 0)
(5.17244e-05 0 0)
(5.01813e-05 0 0)
(4.9011e-05 0 0)
(4.80997e-05 0 0)
(4.73814e-05 0 0)
(4.68102e-05 0 0)
(4.63538e-05 0 0)
(4.59884e-05 0 0)
(4.56959e-05 0 0)
(4.54622e-05 0 0)
(4.5276e-05 0 0)
(4.51281e-05 0 0)
(4.50111e-05 0 0)
(4.49191e-05 0 0)
(4.4847e-05 0 0)
(4.47909e-05 0 0)
(4.47473e-05 0 0)
(4.47138e-05 0 0)
(4.46881e-05 0 0)
(4.46685e-05 0 0)
(4.46536e-05 0 0)
(4.46423e-05 0 0)
(4.46338e-05 0 0)
(4.46275e-05 0 0)
(4.46228e-05 0 0)
(4.46193e-05 0 0)
(4.46167e-05 0 0)
(4.46147e-05 0 0)
(4.46133e-05 0 0)
(4.46123e-05 0 0)
(4.46116e-05 0 0)
(4.4611e-05 0 0)
(4.46107e-05 0 0)
(4.46104e-05 0 0)
(4.46102e-05 0 0)
(4.46101e-05 0 0)
(4.46101e-05 0 0)
(4.46101e-05 0 0)
(4.46102e-05 0 0)
(4.46104e-05 0 0)
(4.46107e-05 0 0)
(4.46111e-05 0 0)
(4.46117e-05 0 0)
(4.46125e-05 0 0)
(4.46135e-05 0 0)
(4.4615e-05 0 0)
(4.46171e-05 0 0)
(4.46198e-05 0 0)
(4.46236e-05 0 0)
(4.46287e-05 0 0)
(4.46355e-05 0 0)
(4.46447e-05 0 0)
(4.4657e-05 0 0)
(4.46733e-05 0 0)
(4.4695e-05 0 0)
(4.47235e-05 0 0)
(4.47609e-05 0 0)
(4.48098e-05 0 0)
(4.48733e-05 0 0)
(4.49555e-05 0 0)
(4.50613e-05 0 0)
(4.51969e-05 0 0)
(4.537e-05 0 0)
(4.559e-05 0 0)
(4.58688e-05 0 0)
(4.62214e-05 0 0)
(4.66667e-05 0 0)
(4.72297e-05 0 0)
(4.79432e-05 0 0)
(4.88528e-05 0 0)
(5.0021e-05 0 0)
(5.15427e-05 0 0)
(5.35513e-05 0 0)
(5.62572e-05 0 0)
(5.99678e-05 0 0)
(6.50772e-05 0 0)
(7.22019e-05 0 0)
(8.23166e-05 0 0)
(9.52917e-05 0 0)
(0.000117088 0 0)
(0.000133494 0 0)
)
;

boundaryField
{
    frontHeated
    {
        type            noSlip;
    }
    backOutlet
    {
        type            pressureInletOutletVelocity;
        value           uniform (0.000133494 0 0);
    }
    defaultFaces
    {
        type            empty;
    }
}


// ************************************************************************* //
