/*--------------------------------*- C++ -*----------------------------------*\
  =========                 |
  \\      /  F ield         | OpenFOAM: The Open Source CFD Toolbox
   \\    /   O peration     | Website:  https://openfoam.org
    \\  /    A nd           | Version:  dev
     \\/     M anipulation  |
\*---------------------------------------------------------------------------*/
FoamFile
{
    format      ascii;
    class       volScalarField;
    location    "0.209667";
    object      rhoSmear;
}
// * * * * * * * * * * * * * * * * * * * * * * * * * * * * * * * * * * * * * //

dimensions      [1 -3 -1 0 0 0 0];

internalField   nonuniform List<scalar> 
100
(
8.37713e-17
9.30792e-17
1.12729e-16
1.44905e-16
1.93181e-16
2.62921e-16
3.61875e-16
5.01038e-16
6.95871e-16
9.68024e-16
1.34773e-15
1.87719e-15
2.61523e-15
3.64385e-15
5.07733e-15
7.07497e-15
9.85871e-15
1.37379e-14
1.91435e-14
2.66761e-14
3.71727e-14
5.17997e-14
7.21822e-14
1.00585e-13
1.40164e-13
1.95316e-13
2.72171e-13
3.79266e-13
5.28502e-13
7.36461e-13
1.02625e-12
1.43006e-12
1.99278e-12
2.77691e-12
3.86958e-12
5.39221e-12
7.51398e-12
1.04706e-11
1.45907e-11
2.03319e-11
2.83323e-11
3.94806e-11
5.50158e-11
7.66637e-11
1.0683e-10
1.48866e-10
2.07443e-10
2.89069e-10
4.02814e-10
5.61316e-10
7.82186e-10
1.08997e-09
1.51885e-09
2.1165e-09
2.94932e-09
4.10983e-09
5.727e-09
7.9805e-09
1.11207e-08
1.54966e-08
2.15943e-08
3.00913e-08
4.19319e-08
5.84315e-08
8.14235e-08
1.13463e-07
1.58109e-07
2.20322e-07
3.07016e-07
4.27823e-07
5.96166e-07
8.30749e-07
1.15764e-06
1.61315e-06
2.24791e-06
3.13243e-06
4.365e-06
6.08257e-06
8.47598e-06
1.18112e-05
1.64587e-05
2.2935e-05
3.19596e-05
4.45353e-05
6.20594e-05
8.64789e-05
0.000120507
0
0
0
0
0
0
0
0
0
-0.00024003
-0.000186732
0
0
)
;

boundaryField
{
    frontHeated
    {
        type            zeroGradient;
    }
    backOutlet
    {
        type            zeroGradient;
    }
    defaultFaces
    {
        type            empty;
    }
}


// ************************************************************************* //
