/*--------------------------------*- C++ -*----------------------------------*\
  =========                 |
  \\      /  F ield         | OpenFOAM: The Open Source CFD Toolbox
   \\    /   O peration     | Website:  https://openfoam.org
    \\  /    A nd           | Version:  dev
     \\/     M anipulation  |
\*---------------------------------------------------------------------------*/
FoamFile
{
    format      ascii;
    class       volVectorField;
    location    "0.209667";
    object      U;
}
// * * * * * * * * * * * * * * * * * * * * * * * * * * * * * * * * * * * * * //

dimensions      [0 1 -1 0 0 0 0];

internalField   nonuniform List<vector> 
100
(
(0.0345302 0 0)
(0.0900326 0 0)
(0.138437 0 0)
(0.184623 0 0)
(0.230569 0 0)
(0.276684 0 0)
(0.322909 0 0)
(0.369154 0 0)
(0.415388 0 0)
(0.461612 0 0)
(0.507835 0 0)
(0.554061 0 0)
(0.600295 0 0)
(0.64654 0 0)
(0.692801 0 0)
(0.739085 0 0)
(0.785401 0 0)
(0.831758 0 0)
(0.878162 0 0)
(0.924622 0 0)
(0.971141 0 0)
(1.01772 0 0)
(1.06437 0 0)
(1.11107 0 0)
(1.15782 0 0)
(1.20462 0 0)
(1.25142 0 0)
(1.29822 0 0)
(1.34498 0 0)
(1.39164 0 0)
(1.43817 0 0)
(1.48449 0 0)
(1.53052 0 0)
(1.57619 0 0)
(1.6214 0 0)
(1.66605 0 0)
(1.71005 0 0)
(1.7533 0 0)
(1.79569 0 0)
(1.83707 0 0)
(1.8773 0 0)
(1.91623 0 0)
(1.95378 0 0)
(1.98985 0 0)
(2.0244 0 0)
(2.05736 0 0)
(2.08866 0 0)
(2.11825 0 0)
(2.14604 0 0)
(2.17196 0 0)
(2.19595 0 0)
(2.21798 0 0)
(2.23799 0 0)
(2.25596 0 0)
(2.27188 0 0)
(2.28573 0 0)
(2.29751 0 0)
(2.30727 0 0)
(2.31504 0 0)
(2.32084 0 0)
(2.32476 0 0)
(2.32707 0 0)
(2.32816 0 0)
(2.32843 0 0)
(2.3281 0 0)
(2.32717 0 0)
(2.32531 0 0)
(2.32165 0 0)
(2.3146 0 0)
(2.30177 0 0)
(2.28049 0 0)
(2.24867 0 0)
(2.20586 0 0)
(2.15399 0 0)
(2.09764 0 0)
(2.04374 0 0)
(2.00048 0 0)
(1.97623 0 0)
(1.97892 0 0)
(2.01539 0 0)
(2.0883 0 0)
(2.2221 0 0)
(2.25349 0 0)
(2.29886 0 0)
(2.63387 0 0)
(3.32661 0 0)
(4.40591 0 0)
(4.55872 0 0)
(4.59716 0 0)
(4.65656 0 0)
(4.66621 0 0)
(4.65829 0 0)
(4.65325 0 0)
(4.65056 0 0)
(4.64681 0 0)
(4.64986 0 0)
(4.62145 0 0)
(4.74265 0 0)
(4.17668 0 0)
(6.79887 0 0)
)
;

boundaryField
{
    frontHeated
    {
        type            noSlip;
    }
    backOutlet
    {
        type            pressureInletOutletVelocity;
        value           uniform (6.79887 0 0);
    }
    defaultFaces
    {
        type            empty;
    }
}


// ************************************************************************* //
