/*--------------------------------*- C++ -*----------------------------------*\
  =========                 |
  \\      /  F ield         | OpenFOAM: The Open Source CFD Toolbox
   \\    /   O peration     | Website:  https://openfoam.org
    \\  /    A nd           | Version:  dev
     \\/     M anipulation  |
\*---------------------------------------------------------------------------*/
FoamFile
{
    format      ascii;
    class       volScalarField;
    location    "0.205965";
    object      rhoSmear;
}
// * * * * * * * * * * * * * * * * * * * * * * * * * * * * * * * * * * * * * //

dimensions      [1 -3 -1 0 0 0 0];

internalField   nonuniform List<scalar> 
100
(
1.28555e-16
1.42839e-16
1.72994e-16
2.2237e-16
2.96455e-16
4.03478e-16
5.55333e-16
7.68891e-16
1.06788e-15
1.48553e-15
2.06823e-15
2.88073e-15
4.01332e-15
5.59183e-15
7.79166e-15
1.08572e-14
1.51292e-14
2.10821e-14
2.93775e-14
4.09371e-14
5.70452e-14
7.94917e-14
1.10771e-13
1.54357e-13
2.15095e-13
2.99732e-13
4.17672e-13
5.82021e-13
8.11038e-13
1.13017e-12
1.57488e-12
2.19457e-12
3.05811e-12
4.26143e-12
5.93825e-12
8.27488e-12
1.15309e-11
1.60682e-11
2.23908e-11
3.12013e-11
4.34786e-11
6.05869e-11
8.4427e-11
1.17648e-10
1.63941e-10
2.28449e-10
3.18341e-10
4.43604e-10
6.18157e-10
8.61393e-10
1.20034e-09
1.67266e-09
2.33083e-09
3.24798e-09
4.52601e-09
6.30694e-09
8.78864e-09
1.22469e-08
1.70658e-08
2.3781e-08
3.31385e-08
4.61781e-08
6.43485e-08
8.96688e-08
1.24952e-07
1.74119e-07
2.42633e-07
3.38106e-07
4.71146e-07
6.56536e-07
9.14875e-07
1.27487e-06
1.77651e-06
2.47554e-06
3.44963e-06
4.80702e-06
6.69852e-06
9.3343e-06
1.30072e-05
1.81254e-05
2.52575e-05
3.5196e-05
4.90451e-05
6.83437e-05
9.52361e-05
0
0
0
0
0
0
0
0
0
0
0
-0.000189694
-0.000147573
0
0
)
;

boundaryField
{
    frontHeated
    {
        type            zeroGradient;
    }
    backOutlet
    {
        type            zeroGradient;
    }
    defaultFaces
    {
        type            empty;
    }
}


// ************************************************************************* //
