/*--------------------------------*- C++ -*----------------------------------*\
  =========                 |
  \\      /  F ield         | OpenFOAM: The Open Source CFD Toolbox
   \\    /   O peration     | Website:  https://openfoam.org
    \\  /    A nd           | Version:  dev
     \\/     M anipulation  |
\*---------------------------------------------------------------------------*/
FoamFile
{
    format      ascii;
    class       volScalarField;
    location    "0.198448";
    object      thermo:rho;
}
// * * * * * * * * * * * * * * * * * * * * * * * * * * * * * * * * * * * * * //

dimensions      [1 -3 0 0 0 0 0];

internalField   nonuniform List<scalar> 
100
(
0.091062
0.103477
0.107604
0.109293
0.11009
0.110503
0.110727
0.11085
0.110913
0.11094
0.110942
0.110928
0.110904
0.110872
0.110835
0.110796
0.110756
0.110716
0.110677
0.11064
0.110605
0.110573
0.110544
0.110518
0.110493
0.11047
0.110447
0.110423
0.110396
0.110364
0.110325
0.110276
0.110214
0.110136
0.110038
0.109918
0.109771
0.109595
0.109385
0.109138
0.108851
0.108521
0.108145
0.107719
0.107242
0.106711
0.106124
0.10548
0.104777
0.104014
0.10319
0.102305
0.101357
0.100348
0.0992784
0.0981481
0.0969585
0.0957117
0.0944109
0.0930603
0.0916644
0.0902267
0.0887479
0.0872262
0.0856571
0.0840357
0.0823592
0.0806289
0.0788523
0.0770429
0.0752195
0.0734029
0.0716137
0.0698694
0.0681842
0.0665678
0.0650331
0.0635648
0.062321
0.0605382
0.0625333
0.0407421
582.187
881.409
919.041
940.595
953.717
959.434
964.905
968.35
964.7
964.76
965.042
965.012
966.984
1003.92
946.268
944.155
950.555
950.242
)
;

boundaryField
{
    frontHeated
    {
        type            calculated;
        value           uniform 0.0562093;
    }
    backOutlet
    {
        type            calculated;
        value           uniform 950.236;
    }
    defaultFaces
    {
        type            empty;
    }
}


// ************************************************************************* //
