/*--------------------------------*- C++ -*----------------------------------*\
  =========                 |
  \\      /  F ield         | OpenFOAM: The Open Source CFD Toolbox
   \\    /   O peration     | Website:  https://openfoam.org
    \\  /    A nd           | Version:  dev
     \\/     M anipulation  |
\*---------------------------------------------------------------------------*/
FoamFile
{
    format      ascii;
    class       volVectorField;
    location    "0.198448";
    object      U;
}
// * * * * * * * * * * * * * * * * * * * * * * * * * * * * * * * * * * * * * //

dimensions      [0 1 -1 0 0 0 0];

internalField   nonuniform List<vector> 
100
(
(0.0368104 0 0)
(0.0950986 0 0)
(0.146317 0 0)
(0.195677 0 0)
(0.244981 0 0)
(0.294464 0 0)
(0.344007 0 0)
(0.393531 0 0)
(0.44303 0 0)
(0.492519 0 0)
(0.542011 0 0)
(0.59151 0 0)
(0.64102 0 0)
(0.690544 0 0)
(0.74009 0 0)
(0.789666 0 0)
(0.83928 0 0)
(0.888942 0 0)
(0.938657 0 0)
(0.988431 0 0)
(1.03827 0 0)
(1.08817 0 0)
(1.13812 0 0)
(1.18813 0 0)
(1.23817 0 0)
(1.28823 0 0)
(1.33828 0 0)
(1.38828 0 0)
(1.43819 0 0)
(1.48794 0 0)
(1.53748 0 0)
(1.58672 0 0)
(1.63557 0 0)
(1.68393 0 0)
(1.7317 0 0)
(1.77881 0 0)
(1.82515 0 0)
(1.87059 0 0)
(1.91496 0 0)
(1.95811 0 0)
(1.99991 0 0)
(2.04031 0 0)
(2.07925 0 0)
(2.11669 0 0)
(2.15256 0 0)
(2.18678 0 0)
(2.21927 0 0)
(2.24996 0 0)
(2.27877 0 0)
(2.30566 0 0)
(2.33058 0 0)
(2.35351 0 0)
(2.37442 0 0)
(2.3933 0 0)
(2.41013 0 0)
(2.42497 0 0)
(2.43787 0 0)
(2.44881 0 0)
(2.45784 0 0)
(2.46537 0 0)
(2.47205 0 0)
(2.4784 0 0)
(2.48452 0 0)
(2.49016 0 0)
(2.49456 0 0)
(2.49598 0 0)
(2.49128 0 0)
(2.47631 0 0)
(2.44732 0 0)
(2.40305 0 0)
(2.3461 0 0)
(2.28329 0 0)
(2.22478 0 0)
(2.18251 0 0)
(2.16804 0 0)
(2.19044 0 0)
(2.25428 0 0)
(2.35955 0 0)
(2.49877 0 0)
(2.68859 0 0)
(2.89035 0 0)
(4.56335 0 0)
(4.5766 0 0)
(4.6006 0 0)
(4.64301 0 0)
(4.65966 0 0)
(4.65813 0 0)
(4.65469 0 0)
(4.65059 0 0)
(4.6477 0 0)
(4.64539 0 0)
(4.64342 0 0)
(4.64132 0 0)
(4.63901 0 0)
(4.63533 0 0)
(4.63519 0 0)
(4.61239 0 0)
(4.70121 0 0)
(4.23178 0 0)
(6.75508 0 0)
)
;

boundaryField
{
    frontHeated
    {
        type            noSlip;
    }
    backOutlet
    {
        type            pressureInletOutletVelocity;
        value           uniform (6.75508 0 0);
    }
    defaultFaces
    {
        type            empty;
    }
}


// ************************************************************************* //
