/*--------------------------------*- C++ -*----------------------------------*\
  =========                 |
  \\      /  F ield         | OpenFOAM: The Open Source CFD Toolbox
   \\    /   O peration     | Website:  https://openfoam.org
    \\  /    A nd           | Version:  dev
     \\/     M anipulation  |
\*---------------------------------------------------------------------------*/
FoamFile
{
    format      ascii;
    class       volScalarField;
    location    "0.192311";
    object      rhoSmear;
}
// * * * * * * * * * * * * * * * * * * * * * * * * * * * * * * * * * * * * * //

dimensions      [1 -3 -1 0 0 0 0];

internalField   nonuniform List<scalar> 
100
(
1.3494e-15
1.49934e-15
1.81586e-15
2.33415e-15
3.11179e-15
4.23519e-15
5.82916e-15
8.07081e-15
1.12092e-14
1.55931e-14
2.17096e-14
3.02382e-14
4.21266e-14
5.86957e-14
8.17866e-14
1.13965e-13
1.58806e-13
2.21292e-13
3.08366e-13
4.29704e-13
5.98786e-13
8.34399e-13
1.16272e-12
1.62024e-12
2.25778e-12
3.14619e-12
4.38418e-12
6.10929e-12
8.51322e-12
1.18631e-11
1.6531e-11
2.30357e-11
3.21e-11
4.47309e-11
6.2332e-11
8.68588e-11
1.21037e-10
1.68663e-10
2.35029e-10
3.2751e-10
4.56381e-10
6.35962e-10
8.86204e-10
1.23491e-09
1.72084e-09
2.39796e-09
3.34153e-09
4.65638e-09
6.4886e-09
9.04178e-09
1.25996e-08
1.75574e-08
2.4466e-08
3.4093e-08
4.75081e-08
6.6202e-08
9.22516e-08
1.28551e-07
1.79135e-07
2.49622e-07
3.47845e-07
4.84717e-07
6.75447e-07
9.41226e-07
1.31159e-06
1.82768e-06
2.54684e-06
3.54899e-06
4.94548e-06
6.89146e-06
9.60315e-06
1.33819e-05
1.86475e-05
2.5985e-05
3.62097e-05
5.04578e-05
7.03123e-05
9.79792e-05
0.000136533
0
0
0
0
0
0
0
0
0
0
0
-0.000144437
-0.000103829
-7.47588e-05
-5.39946e-05
-3.92299e-05
-2.88241e-05
-2.16209e-05
-1.68201e-05
0
0
)
;

boundaryField
{
    frontHeated
    {
        type            zeroGradient;
    }
    backOutlet
    {
        type            zeroGradient;
    }
    defaultFaces
    {
        type            empty;
    }
}


// ************************************************************************* //
