/*--------------------------------*- C++ -*----------------------------------*\
  =========                 |
  \\      /  F ield         | OpenFOAM: The Open Source CFD Toolbox
   \\    /   O peration     | Website:  https://openfoam.org
    \\  /    A nd           | Version:  dev
     \\/     M anipulation  |
\*---------------------------------------------------------------------------*/
FoamFile
{
    format      ascii;
    class       volVectorField;
    location    "0.192311";
    object      U;
}
// * * * * * * * * * * * * * * * * * * * * * * * * * * * * * * * * * * * * * //

dimensions      [0 1 -1 0 0 0 0];

internalField   nonuniform List<vector> 
100
(
(0.0382157 0 0)
(0.0982187 0 0)
(0.151218 0 0)
(0.202595 0 0)
(0.254018 0 0)
(0.305609 0 0)
(0.357223 0 0)
(0.408797 0 0)
(0.460342 0 0)
(0.511881 0 0)
(0.563424 0 0)
(0.614975 0 0)
(0.666538 0 0)
(0.718116 0 0)
(0.769719 0 0)
(0.821354 0 0)
(0.873031 0 0)
(0.924756 0 0)
(0.976536 0 0)
(1.02837 0 0)
(1.08027 0 0)
(1.13223 0 0)
(1.18425 0 0)
(1.2363 0 0)
(1.28838 0 0)
(1.34046 0 0)
(1.3925 0 0)
(1.44447 0 0)
(1.49632 0 0)
(1.54797 0 0)
(1.59935 0 0)
(1.65039 0 0)
(1.70096 0 0)
(1.75098 0 0)
(1.80038 0 0)
(1.84907 0 0)
(1.89692 0 0)
(1.94373 0 0)
(1.98933 0 0)
(2.03363 0 0)
(2.07657 0 0)
(2.11813 0 0)
(2.15827 0 0)
(2.1969 0 0)
(2.23394 0 0)
(2.2693 0 0)
(2.3029 0 0)
(2.33467 0 0)
(2.36457 0 0)
(2.39256 0 0)
(2.4186 0 0)
(2.44268 0 0)
(2.46477 0 0)
(2.48486 0 0)
(2.50301 0 0)
(2.51931 0 0)
(2.53368 0 0)
(2.54613 0 0)
(2.55727 0 0)
(2.56801 0 0)
(2.57886 0 0)
(2.58965 0 0)
(2.59982 0 0)
(2.60817 0 0)
(2.61193 0 0)
(2.6063 0 0)
(2.58571 0 0)
(2.54664 0 0)
(2.49033 0 0)
(2.42382 0 0)
(2.35893 0 0)
(2.31006 0 0)
(2.29155 0 0)
(2.31488 0 0)
(2.38707 0 0)
(2.50839 0 0)
(2.7052 0 0)
(2.95567 0 0)
(4.55528 0 0)
(4.56631 0 0)
(4.58941 0 0)
(4.64171 0 0)
(4.66189 0 0)
(4.65941 0 0)
(4.65574 0 0)
(4.6513 0 0)
(4.64835 0 0)
(4.64605 0 0)
(4.64421 0 0)
(4.64234 0 0)
(4.64019 0 0)
(4.63755 0 0)
(4.63426 0 0)
(4.6304 0 0)
(4.62528 0 0)
(4.62293 0 0)
(4.60213 0 0)
(4.6769 0 0)
(4.25188 0 0)
(6.75943 0 0)
)
;

boundaryField
{
    frontHeated
    {
        type            noSlip;
    }
    backOutlet
    {
        type            pressureInletOutletVelocity;
        value           uniform (6.75943 0 0);
    }
    defaultFaces
    {
        type            empty;
    }
}


// ************************************************************************* //
