/*--------------------------------*- C++ -*----------------------------------*\
  =========                 |
  \\      /  F ield         | OpenFOAM: The Open Source CFD Toolbox
   \\    /   O peration     | Website:  https://openfoam.org
    \\  /    A nd           | Version:  dev
     \\/     M anipulation  |
\*---------------------------------------------------------------------------*/
FoamFile
{
    format      ascii;
    class       surfaceScalarField;
    location    "0.243232";
    object      phi;
}
// * * * * * * * * * * * * * * * * * * * * * * * * * * * * * * * * * * * * * //

dimensions      [0 3 -1 0 0 0 0];

internalField   nonuniform List<scalar> 
99
(
0.0607507
0.11185
0.161075
0.209592
0.257784
0.305815
0.353772
0.4017
0.449629
0.497578
0.545561
0.593588
0.641671
0.689817
0.738036
0.786334
0.834721
0.883205
0.931794
0.980496
1.02932
1.07828
1.12738
1.17663
1.22604
1.27562
1.32538
1.37534
1.4255
1.47588
1.52649
1.57734
1.62845
1.67983
1.73149
1.78346
1.83574
1.88836
1.94134
1.99469
2.04843
2.1026
2.15721
2.21228
2.26786
2.32396
2.38063
2.4379
2.4958
2.55439
2.61371
2.67381
2.73475
2.79659
2.85939
2.92322
2.98818
3.05432
3.12176
3.19058
3.26088
3.33279
3.40641
3.48188
3.55933
3.63891
3.72077
3.80506
3.89197
3.98167
4.07436
4.17024
4.26954
4.37246
4.47925
4.59013
4.70537
4.8252
4.94988
5.07969
5.2149
5.35582
5.50275
5.65605
5.81603
5.98302
6.15739
6.33955
6.53021
6.72999
6.93903
7.15845
7.38765
7.62691
7.87433
8.12163
8.87013
9.99218
13.0892
)
;

boundaryField
{
    frontHeated
    {
        type            calculated;
        value           uniform 0;
    }
    backOutlet
    {
        type            calculated;
        value           uniform 23.0498;
    }
    defaultFaces
    {
        type            empty;
        value           nonuniform List<scalar> 0();
    }
}


// ************************************************************************* //
