/*--------------------------------*- C++ -*----------------------------------*\
  =========                 |
  \\      /  F ield         | OpenFOAM: The Open Source CFD Toolbox
   \\    /   O peration     | Website:  https://openfoam.org
    \\  /    A nd           | Version:  dev
     \\/     M anipulation  |
\*---------------------------------------------------------------------------*/
FoamFile
{
    format      ascii;
    class       volScalarField;
    location    "0.213462";
    object      T;
}
// * * * * * * * * * * * * * * * * * * * * * * * * * * * * * * * * * * * * * //

dimensions      [0 0 0 1 0 0 0];

internalField   nonuniform List<scalar> 
100
(
239.055
207.292
198.019
194.344
192.622
191.726
191.23
190.948
190.79
190.709
190.677
190.679
190.703
190.744
190.796
190.854
190.917
190.982
191.047
191.111
191.172
191.23
191.284
191.334
191.38
191.423
191.463
191.502
191.542
191.584
191.631
191.686
191.753
191.835
191.936
192.061
192.214
192.4
192.625
192.894
193.212
193.585
194.017
194.516
195.085
195.731
196.46
197.276
198.185
199.192
200.304
201.526
202.863
204.322
205.908
207.627
209.486
211.49
213.646
215.96
218.437
221.082
223.9
226.894
230.071
233.44
237.015
240.813
244.854
249.16
253.749
258.636
263.825
269.312
275.082
281.109
287.361
293.801
300.385
307.073
313.794
320.444
327.217
331.568
339.882
353.674
368.942
371.388
385.121
385.123
385.125
385.127
385.128
385.13
385.132
385.134
385.136
385.137
385.138
385.047
)
;

boundaryField
{
    frontHeated
    {
        type            fixedValue;
        value           uniform 385.15;
    }
    backOutlet
    {
        type            fixedValue;
        value           uniform 385.15;
    }
    defaultFaces
    {
        type            empty;
    }
}


// ************************************************************************* //
