/*--------------------------------*- C++ -*----------------------------------*\
  =========                 |
  \\      /  F ield         | OpenFOAM: The Open Source CFD Toolbox
   \\    /   O peration     | Website:  https://openfoam.org
    \\  /    A nd           | Version:  dev
     \\/     M anipulation  |
\*---------------------------------------------------------------------------*/
FoamFile
{
    format      ascii;
    class       volScalarField;
    location    "0.127117";
    object      p;
}
// * * * * * * * * * * * * * * * * * * * * * * * * * * * * * * * * * * * * * //

dimensions      [1 -1 -2 0 0 0 0];

internalField   nonuniform List<scalar> 
100
(
99985
99985
99985
99985
99985
99985
99985
99985
99985
99985
99985
99985
99985.2
99985.3
99985.4
99985.6
99985.8
99985.9
99986.1
99986.3
99986.4
99986.6
99986.8
99986.9
99987.1
99987.3
99987.5
99987.6
99987.8
99988
99988.2
99988.3
99988.5
99988.7
99988.8
99989
99989.2
99989.4
99989.5
99989.7
99989.9
99990.1
99990.2
99990.4
99990.6
99990.8
99990.9
99991.1
99991.3
99991.4
99991.6
99991.8
99992
99992.1
99992.3
99992.5
99992.7
99992.8
99993
99993.2
99993.4
99993.5
99993.7
99993.9
99994
99994.2
99994.4
99994.6
99994.7
99994.9
99995.1
99995.3
99995.4
99995.6
99995.8
99996
99996.1
99996.3
99996.5
99996.6
99996.8
99997
99997.2
99997.3
99997.5
99997.7
99997.9
99998
99998.2
99998.4
99998.6
99998.7
99998.9
99999.1
99999.2
99999.4
99999.5
99999.7
99999.8
99999.9
)
;

boundaryField
{
    frontHeated
    {
        type            calculated;
        value           uniform 99985;
    }
    backOutlet
    {
        type            calculated;
        value           uniform 100000;
    }
    defaultFaces
    {
        type            empty;
    }
}


// ************************************************************************* //
