/*--------------------------------*- C++ -*----------------------------------*\
  =========                 |
  \\      /  F ield         | OpenFOAM: The Open Source CFD Toolbox
   \\    /   O peration     | Website:  https://openfoam.org
    \\  /    A nd           | Version:  dev
     \\/     M anipulation  |
\*---------------------------------------------------------------------------*/
FoamFile
{
    format      ascii;
    class       volScalarField;
    location    "0.241674";
    object      thermo:rho;
}
// * * * * * * * * * * * * * * * * * * * * * * * * * * * * * * * * * * * * * //

dimensions      [1 -3 0 0 0 0 0];

internalField   nonuniform List<scalar> 
100
(
0.0895488
0.105793
0.112162
0.115035
0.11648
0.117267
0.117721
0.117994
0.11816
0.118261
0.118319
0.118348
0.118357
0.118351
0.118336
0.118313
0.118286
0.118255
0.118221
0.118187
0.118153
0.118118
0.118085
0.118053
0.118023
0.117995
0.117968
0.117943
0.11792
0.117898
0.117877
0.117855
0.117833
0.117809
0.117782
0.11775
0.117713
0.117669
0.117616
0.117552
0.117476
0.117386
0.117279
0.117153
0.117007
0.116838
0.116645
0.116425
0.116176
0.115898
0.115587
0.115243
0.114863
0.114447
0.113993
0.1135
0.112968
0.112394
0.111779
0.111122
0.110422
0.10968
0.108895
0.108067
0.107197
0.106285
0.105333
0.104341
0.10331
0.102242
0.101138
0.0999989
0.0988254
0.097618
0.0963772
0.0951033
0.0937971
0.0924595
0.0910926
0.0896991
0.0882825
0.0868476
0.0854002
0.0839458
0.0824909
0.0810443
0.0796154
0.0782128
0.0768328
0.0754642
0.0741008
0.0727282
0.0713278
0.069895
0.0684155
0.066991
0.0649478
17.3381
64.1141
64.2303
)
;

boundaryField
{
    frontHeated
    {
        type            calculated;
        value           uniform 0.0562093;
    }
    backOutlet
    {
        type            calculated;
        value           uniform 64.1133;
    }
    defaultFaces
    {
        type            empty;
    }
}


// ************************************************************************* //
