/*--------------------------------*- C++ -*----------------------------------*\
  =========                 |
  \\      /  F ield         | OpenFOAM: The Open Source CFD Toolbox
   \\    /   O peration     | Website:  https://openfoam.org
    \\  /    A nd           | Version:  dev
     \\/     M anipulation  |
\*---------------------------------------------------------------------------*/
FoamFile
{
    format      ascii;
    class       volScalarField;
    location    "0.0577797";
    object      rhoSmear;
}
// * * * * * * * * * * * * * * * * * * * * * * * * * * * * * * * * * * * * * //

dimensions      [1 -3 -1 0 0 0 0];

internalField   nonuniform List<scalar> 
100
(
1.6281e-08
1.809e-08
2.1909e-08
2.81623e-08
3.75448e-08
5.10989e-08
7.03306e-08
9.73769e-08
1.35243e-07
1.88136e-07
2.61933e-07
3.64833e-07
5.08271e-07
7.08183e-07
9.86782e-07
1.37502e-06
1.91605e-06
2.66996e-06
3.72054e-06
5.18451e-06
7.22454e-06
0
0
0
0
0
0
0
0
0
0
-7.22452e-06
-5.18449e-06
-3.72052e-06
-2.66993e-06
-1.91601e-06
-1.37498e-06
-9.86716e-07
-7.08091e-07
-5.08143e-07
-3.64656e-07
-2.61686e-07
-1.87792e-07
-1.34764e-07
-9.67101e-08
-6.94015e-08
-4.98042e-08
-3.57407e-08
-2.56484e-08
-1.84059e-08
-1.32085e-08
-9.47877e-09
-6.8022e-09
-4.88142e-09
-3.50303e-09
-2.51386e-09
-1.804e-09
-1.2946e-09
-9.29035e-10
-6.66698e-10
-4.78439e-10
-3.43339e-10
-2.46389e-10
-1.76814e-10
-1.26886e-10
-9.10567e-11
-6.53445e-11
-4.68928e-11
-3.36514e-11
-2.41491e-11
-1.733e-11
-1.24364e-11
-8.92466e-12
-6.40456e-12
-4.59607e-12
-3.29825e-12
-2.3669e-12
-1.69855e-12
-1.21892e-12
-8.74727e-13
-6.27726e-13
-4.50472e-13
-3.23271e-13
-2.31989e-13
-1.66484e-13
-1.19477e-13
-8.57448e-14
-6.154e-14
-4.4173e-14
-3.17141e-14
-2.27789e-14
-1.63748e-14
-1.17901e-14
-8.51544e-15
-6.18691e-15
-4.54581e-15
-3.40981e-15
-2.65268e-15
-2.19028e-15
-1.97126e-15
)
;

boundaryField
{
    frontHeated
    {
        type            zeroGradient;
    }
    backOutlet
    {
        type            zeroGradient;
    }
    defaultFaces
    {
        type            empty;
    }
}


// ************************************************************************* //
