/*--------------------------------*- C++ -*----------------------------------*\
  =========                 |
  \\      /  F ield         | OpenFOAM: The Open Source CFD Toolbox
   \\    /   O peration     | Website:  https://openfoam.org
    \\  /    A nd           | Version:  dev
     \\/     M anipulation  |
\*---------------------------------------------------------------------------*/
FoamFile
{
    format      ascii;
    class       volVectorField;
    location    "0.204375";
    object      U;
}
// * * * * * * * * * * * * * * * * * * * * * * * * * * * * * * * * * * * * * //

dimensions      [0 1 -1 0 0 0 0];

internalField   nonuniform List<vector> 
100
(
(0.0355634 0 0)
(0.0923255 0 0)
(0.141994 0 0)
(0.189602 0 0)
(0.237057 0 0)
(0.284689 0 0)
(0.33241 0 0)
(0.380134 0 0)
(0.427839 0 0)
(0.475534 0 0)
(0.52323 0 0)
(0.570932 0 0)
(0.618642 0 0)
(0.666366 0 0)
(0.71411 0 0)
(0.76188 0 0)
(0.809687 0 0)
(0.857537 0 0)
(0.905439 0 0)
(0.953399 0 0)
(1.00142 0 0)
(1.04951 0 0)
(1.09765 0 0)
(1.14586 0 0)
(1.19411 0 0)
(1.24238 0 0)
(1.29067 0 0)
(1.33893 0 0)
(1.38712 0 0)
(1.43519 0 0)
(1.48309 0 0)
(1.53075 0 0)
(1.57807 0 0)
(1.62498 0 0)
(1.67136 0 0)
(1.71712 0 0)
(1.76219 0 0)
(1.80644 0 0)
(1.84973 0 0)
(1.89192 0 0)
(1.93285 0 0)
(1.97241 0 0)
(2.01053 0 0)
(2.04716 0 0)
(2.08224 0 0)
(2.11572 0 0)
(2.1475 0 0)
(2.17751 0 0)
(2.20569 0 0)
(2.23195 0 0)
(2.25627 0 0)
(2.27859 0 0)
(2.29889 0 0)
(2.31715 0 0)
(2.33334 0 0)
(2.34747 0 0)
(2.35959 0 0)
(2.36972 0 0)
(2.37788 0 0)
(2.38415 0 0)
(2.38881 0 0)
(2.39238 0 0)
(2.39529 0 0)
(2.39777 0 0)
(2.39973 0 0)
(2.40071 0 0)
(2.39954 0 0)
(2.39409 0 0)
(2.38128 0 0)
(2.35787 0 0)
(2.3218 0 0)
(2.27345 0 0)
(2.21642 0 0)
(2.15745 0 0)
(2.10562 0 0)
(2.07099 0 0)
(2.06296 0 0)
(2.08858 0 0)
(2.15132 0 0)
(2.24993 0 0)
(2.37778 0 0)
(2.51403 0 0)
(2.65876 0 0)
(2.73768 0 0)
(4.576 0 0)
(4.59425 0 0)
(4.62215 0 0)
(4.64501 0 0)
(4.65469 0 0)
(4.65609 0 0)
(4.65311 0 0)
(4.64964 0 0)
(4.64679 0 0)
(4.64465 0 0)
(4.64159 0 0)
(4.64378 0 0)
(4.6189 0 0)
(4.72236 0 0)
(4.20929 0 0)
(6.76327 0 0)
)
;

boundaryField
{
    frontHeated
    {
        type            noSlip;
    }
    backOutlet
    {
        type            pressureInletOutletVelocity;
        value           uniform (6.76327 0 0);
    }
    defaultFaces
    {
        type            empty;
    }
}


// ************************************************************************* //
