/*--------------------------------*- C++ -*----------------------------------*\
  =========                 |
  \\      /  F ield         | OpenFOAM: The Open Source CFD Toolbox
   \\    /   O peration     | Website:  https://openfoam.org
    \\  /    A nd           | Version:  dev
     \\/     M anipulation  |
\*---------------------------------------------------------------------------*/
FoamFile
{
    format      ascii;
    class       volScalarField;
    location    "0.160611";
    object      rhoSmear;
}
// * * * * * * * * * * * * * * * * * * * * * * * * * * * * * * * * * * * * * //

dimensions      [1 -3 -1 0 0 0 0];

internalField   nonuniform List<scalar> 
100
(
1.76747e-13
1.96386e-13
2.37845e-13
3.05731e-13
4.07587e-13
5.54731e-13
7.63512e-13
1.05713e-12
1.4682e-12
2.04241e-12
2.84355e-12
3.96064e-12
5.51781e-12
7.68806e-12
1.07125e-11
1.49273e-11
2.08007e-11
2.89852e-11
4.03903e-11
5.62832e-11
7.84299e-11
1.09291e-10
1.52295e-10
2.12222e-10
2.95728e-10
4.12093e-10
5.74246e-10
8.00205e-10
1.11507e-09
1.55384e-09
2.16526e-09
3.01726e-09
4.20451e-09
5.85893e-09
8.16434e-09
1.13769e-08
1.58536e-08
2.20917e-08
3.07845e-08
4.28978e-08
5.97776e-08
8.32992e-08
1.16076e-07
1.61751e-07
2.25398e-07
3.14089e-07
4.37679e-07
6.09899e-07
8.49887e-07
1.18431e-06
1.65031e-06
2.29969e-06
3.20459e-06
4.46555e-06
6.22269e-06
8.67124e-06
1.20833e-05
1.68379e-05
2.34633e-05
3.26958e-05
4.55612e-05
6.3489e-05
8.8471e-05
0.000123283
0
0
0
0
0
0
0
0
0
0
-0.000123283
-8.84711e-05
-6.3489e-05
-4.55612e-05
-3.26959e-05
-2.34634e-05
-1.68379e-05
-1.20833e-05
-8.67132e-06
-6.2228e-06
-4.46571e-06
-3.2048e-06
-2.29999e-06
-1.65073e-06
-1.18488e-06
-8.50687e-07
-6.11015e-07
-4.39233e-07
-3.16254e-07
-2.28415e-07
-1.65955e-07
-1.21935e-07
-9.14636e-08
-7.11545e-08
-5.87514e-08
-5.28763e-08
)
;

boundaryField
{
    frontHeated
    {
        type            zeroGradient;
    }
    backOutlet
    {
        type            zeroGradient;
    }
    defaultFaces
    {
        type            empty;
    }
}


// ************************************************************************* //
