/*--------------------------------*- C++ -*----------------------------------*\
  =========                 |
  \\      /  F ield         | OpenFOAM: The Open Source CFD Toolbox
   \\    /   O peration     | Website:  https://openfoam.org
    \\  /    A nd           | Version:  dev
     \\/     M anipulation  |
\*---------------------------------------------------------------------------*/
FoamFile
{
    format      ascii;
    class       volScalarField;
    location    "0.160611";
    object      T;
}
// * * * * * * * * * * * * * * * * * * * * * * * * * * * * * * * * * * * * * //

dimensions      [0 0 0 1 0 0 0];

internalField   nonuniform List<scalar> 
100
(
236.892
217.44
212.535
210.741
209.951
209.574
209.398
209.33
209.327
209.365
209.428
209.506
209.593
209.683
209.772
209.857
209.936
210.006
210.067
210.121
210.167
210.209
210.252
210.3
210.362
210.446
210.561
210.72
210.935
211.219
211.585
212.049
212.623
213.323
214.163
215.157
216.32
217.664
219.205
220.956
222.933
225.15
227.624
230.37
233.407
236.753
240.426
244.448
248.836
253.612
258.793
264.395
270.396
276.924
283.578
290.336
297.785
306.692
317.5
330.107
343.358
358.565
360.054
385.121
385.124
385.126
385.128
385.13
385.132
385.133
385.135
385.137
385.139
385.14
385.142
385.143
385.144
385.146
385.147
385.148
385.148
385.149
385.15
385.15
385.151
385.151
385.152
385.152
385.152
385.152
385.152
385.153
385.153
385.153
385.153
385.153
385.153
385.153
385.153
385.151
)
;

boundaryField
{
    frontHeated
    {
        type            fixedValue;
        value           uniform 385.15;
    }
    backOutlet
    {
        type            fixedValue;
        value           uniform 385.15;
    }
    defaultFaces
    {
        type            empty;
    }
}


// ************************************************************************* //
