/*--------------------------------*- C++ -*----------------------------------*\
  =========                 |
  \\      /  F ield         | OpenFOAM: The Open Source CFD Toolbox
   \\    /   O peration     | Website:  https://openfoam.org
    \\  /    A nd           | Version:  dev
     \\/     M anipulation  |
\*---------------------------------------------------------------------------*/
FoamFile
{
    format      ascii;
    class       volScalarField;
    location    "0.241749";
    object      thermo:rho;
}
// * * * * * * * * * * * * * * * * * * * * * * * * * * * * * * * * * * * * * //

dimensions      [1 -3 0 0 0 0 0];

internalField   nonuniform List<scalar> 
100
(
0.0895143
0.105767
0.112135
0.115005
0.116447
0.117233
0.117686
0.117958
0.118124
0.118224
0.118282
0.11831
0.118319
0.118314
0.118298
0.118275
0.118248
0.118216
0.118183
0.118148
0.118114
0.118079
0.118046
0.118014
0.117984
0.117955
0.117928
0.117903
0.11788
0.117858
0.117836
0.117814
0.117792
0.117767
0.11774
0.117708
0.117671
0.117626
0.117572
0.117508
0.117431
0.117339
0.117231
0.117104
0.116957
0.116786
0.116591
0.11637
0.116119
0.115838
0.115525
0.115179
0.114797
0.114378
0.113921
0.113425
0.112889
0.112312
0.111693
0.111032
0.110329
0.109582
0.108793
0.107961
0.107086
0.10617
0.105213
0.104216
0.10318
0.102107
0.100998
0.099854
0.0986753
0.0974627
0.0962165
0.0949371
0.0936252
0.092282
0.0909094
0.0895101
0.0880881
0.086648
0.0851955
0.083737
0.0822784
0.0808273
0.0793933
0.0779899
0.0766193
0.0752747
0.0739507
0.0726239
0.0712705
0.0698844
0.0684415
0.0670291
0.0649541
22.3319
68.4665
68.5822
)
;

boundaryField
{
    frontHeated
    {
        type            calculated;
        value           uniform 0.0562093;
    }
    backOutlet
    {
        type            calculated;
        value           uniform 68.4657;
    }
    defaultFaces
    {
        type            empty;
    }
}


// ************************************************************************* //
