/*--------------------------------*- C++ -*----------------------------------*\
  =========                 |
  \\      /  F ield         | OpenFOAM: The Open Source CFD Toolbox
   \\    /   O peration     | Website:  https://openfoam.org
    \\  /    A nd           | Version:  dev
     \\/     M anipulation  |
\*---------------------------------------------------------------------------*/
FoamFile
{
    format      ascii;
    class       volVectorField;
    location    "0.241749";
    object      U;
}
// * * * * * * * * * * * * * * * * * * * * * * * * * * * * * * * * * * * * * //

dimensions      [0 1 -1 0 0 0 0];

internalField   nonuniform List<vector> 
100
(
(0.0287273 0 0)
(0.0770485 0 0)
(0.118576 0 0)
(0.157133 0 0)
(0.194902 0 0)
(0.232684 0 0)
(0.270633 0 0)
(0.308706 0 0)
(0.346839 0 0)
(0.384994 0 0)
(0.423155 0 0)
(0.461319 0 0)
(0.499487 0 0)
(0.53766 0 0)
(0.57584 0 0)
(0.614031 0 0)
(0.652236 0 0)
(0.690463 0 0)
(0.728717 0 0)
(0.767005 0 0)
(0.805334 0 0)
(0.84371 0 0)
(0.882138 0 0)
(0.920622 0 0)
(0.959164 0 0)
(0.997763 0 0)
(1.03641 0 0)
(1.07511 0 0)
(1.11384 0 0)
(1.1526 0 0)
(1.19134 0 0)
(1.23006 0 0)
(1.26872 0 0)
(1.30727 0 0)
(1.34567 0 0)
(1.38386 0 0)
(1.42177 0 0)
(1.45935 0 0)
(1.4965 0 0)
(1.53314 0 0)
(1.56918 0 0)
(1.60455 0 0)
(1.63913 0 0)
(1.67283 0 0)
(1.70555 0 0)
(1.73715 0 0)
(1.76755 0 0)
(1.79663 0 0)
(1.82431 0 0)
(1.85051 0 0)
(1.87516 0 0)
(1.89822 0 0)
(1.91962 0 0)
(1.9393 0 0)
(1.95723 0 0)
(1.97336 0 0)
(1.98763 0 0)
(2.00003 0 0)
(2.01052 0 0)
(2.01909 0 0)
(2.02572 0 0)
(2.03041 0 0)
(2.03319 0 0)
(2.03406 0 0)
(2.03307 0 0)
(2.03027 0 0)
(2.02571 0 0)
(2.01949 0 0)
(2.01175 0 0)
(2.00263 0 0)
(1.99232 0 0)
(1.98095 0 0)
(1.96864 0 0)
(1.95542 0 0)
(1.94119 0 0)
(1.92569 0 0)
(1.90847 0 0)
(1.88887 0 0)
(1.8661 0 0)
(1.83936 0 0)
(1.80813 0 0)
(1.7722 0 0)
(1.732 0 0)
(1.68898 0 0)
(1.64536 0 0)
(1.60291 0 0)
(1.56403 0 0)
(1.53531 0 0)
(1.52289 0 0)
(1.52691 0 0)
(1.54323 0 0)
(1.56469 0 0)
(1.59083 0 0)
(1.62738 0 0)
(1.65639 0 0)
(1.60292 0 0)
(1.34418 0 0)
(4.43483 0 0)
(1.8778 0 0)
(17.1011 0 0)
)
;

boundaryField
{
    frontHeated
    {
        type            noSlip;
    }
    backOutlet
    {
        type            pressureInletOutletVelocity;
        value           uniform (17.1011 0 0);
    }
    defaultFaces
    {
        type            empty;
    }
}


// ************************************************************************* //
