/*--------------------------------*- C++ -*----------------------------------*\
  =========                 |
  \\      /  F ield         | OpenFOAM: The Open Source CFD Toolbox
   \\    /   O peration     | Website:  https://openfoam.org
    \\  /    A nd           | Version:  dev
     \\/     M anipulation  |
\*---------------------------------------------------------------------------*/
FoamFile
{
    format      ascii;
    class       volVectorField;
    location    "0.238446";
    object      U;
}
// * * * * * * * * * * * * * * * * * * * * * * * * * * * * * * * * * * * * * //

dimensions      [0 1 -1 0 0 0 0];

internalField   nonuniform List<vector> 
100
(
(0.0292822 0 0)
(0.0783012 0 0)
(0.120473 0 0)
(0.159735 0 0)
(0.198266 0 0)
(0.236833 0 0)
(0.275568 0 0)
(0.314418 0 0)
(0.35332 0 0)
(0.392239 0 0)
(0.431162 0 0)
(0.470088 0 0)
(0.509018 0 0)
(0.547954 0 0)
(0.586899 0 0)
(0.625855 0 0)
(0.664828 0 0)
(0.703825 0 0)
(0.742851 0 0)
(0.781915 0 0)
(0.821023 0 0)
(0.860182 0 0)
(0.899395 0 0)
(0.938667 0 0)
(0.977998 0 0)
(1.01739 0 0)
(1.05683 0 0)
(1.09632 0 0)
(1.13583 0 0)
(1.17536 0 0)
(1.21488 0 0)
(1.25436 0 0)
(1.29377 0 0)
(1.33304 0 0)
(1.37215 0 0)
(1.41102 0 0)
(1.44958 0 0)
(1.48776 0 0)
(1.52547 0 0)
(1.56263 0 0)
(1.59915 0 0)
(1.63493 0 0)
(1.66988 0 0)
(1.70388 0 0)
(1.73682 0 0)
(1.76858 0 0)
(1.79906 0 0)
(1.82817 0 0)
(1.85581 0 0)
(1.88192 0 0)
(1.90644 0 0)
(1.92931 0 0)
(1.95048 0 0)
(1.96989 0 0)
(1.9875 0 0)
(2.00326 0 0)
(2.01713 0 0)
(2.02908 0 0)
(2.03909 0 0)
(2.04715 0 0)
(2.05325 0 0)
(2.05739 0 0)
(2.0596 0 0)
(2.05992 0 0)
(2.05837 0 0)
(2.05503 0 0)
(2.04998 0 0)
(2.04336 0 0)
(2.03532 0 0)
(2.02606 0 0)
(2.01574 0 0)
(2.00447 0 0)
(1.99231 0 0)
(1.97914 0 0)
(1.96467 0 0)
(1.9484 0 0)
(1.92956 0 0)
(1.90726 0 0)
(1.88062 0 0)
(1.84895 0 0)
(1.81208 0 0)
(1.77088 0 0)
(1.72688 0 0)
(1.68147 0 0)
(1.63733 0 0)
(1.60037 0 0)
(1.57885 0 0)
(1.5761 0 0)
(1.58095 0 0)
(1.58589 0 0)
(1.59804 0 0)
(1.63003 0 0)
(1.68714 0 0)
(1.732 0 0)
(1.72062 0 0)
(1.86853 0 0)
(2.47702 0 0)
(4.75728 0 0)
(3.36877 0 0)
(10.8283 0 0)
)
;

boundaryField
{
    frontHeated
    {
        type            noSlip;
    }
    backOutlet
    {
        type            pressureInletOutletVelocity;
        value           uniform (10.8283 0 0);
    }
    defaultFaces
    {
        type            empty;
    }
}


// ************************************************************************* //
