/*--------------------------------*- C++ -*----------------------------------*\
  =========                 |
  \\      /  F ield         | OpenFOAM: The Open Source CFD Toolbox
   \\    /   O peration     | Website:  https://openfoam.org
    \\  /    A nd           | Version:  dev
     \\/     M anipulation  |
\*---------------------------------------------------------------------------*/
FoamFile
{
    format      ascii;
    class       volScalarField;
    location    "0.192307";
    object      rhoSmear;
}
// * * * * * * * * * * * * * * * * * * * * * * * * * * * * * * * * * * * * * //

dimensions      [1 -3 -1 0 0 0 0];

internalField   nonuniform List<scalar> 
100
(
1.35229e-15
1.50255e-15
1.81975e-15
2.33915e-15
3.11846e-15
4.24426e-15
5.84165e-15
8.0881e-15
1.12332e-14
1.56265e-14
2.17561e-14
3.0303e-14
4.22169e-14
5.88215e-14
8.19619e-14
1.14209e-13
1.59146e-13
2.21766e-13
3.09027e-13
4.30624e-13
6.00068e-13
8.36187e-13
1.16522e-12
1.62371e-12
2.26262e-12
3.15293e-12
4.39357e-12
6.12238e-12
8.53146e-12
1.18885e-11
1.65664e-11
2.30851e-11
3.21688e-11
4.48268e-11
6.24655e-11
8.70449e-11
1.21296e-10
1.69024e-10
2.35533e-10
3.28212e-10
4.57359e-10
6.37324e-10
8.88103e-10
1.23756e-09
1.72452e-09
2.4031e-09
3.34869e-09
4.66635e-09
6.5025e-09
9.06115e-09
1.26266e-08
1.7595e-08
2.45184e-08
3.4166e-08
4.76099e-08
6.63438e-08
9.24492e-08
1.28827e-07
1.79518e-07
2.50157e-07
3.4859e-07
4.85755e-07
6.76894e-07
9.43242e-07
1.3144e-06
1.83159e-06
2.5523e-06
3.5566e-06
4.95607e-06
6.90622e-06
9.62373e-06
1.34105e-05
1.86874e-05
2.60407e-05
3.62873e-05
5.05659e-05
7.04629e-05
9.81891e-05
0.000136825
0
0
0
0
0
0
0
0
0
0
0
0
0
0
0
-0.000211975
-0.000155748
-0.000116827
0
0
0
)
;

boundaryField
{
    frontHeated
    {
        type            zeroGradient;
    }
    backOutlet
    {
        type            zeroGradient;
    }
    defaultFaces
    {
        type            empty;
    }
}


// ************************************************************************* //
