/*--------------------------------*- C++ -*----------------------------------*\
  =========                 |
  \\      /  F ield         | OpenFOAM: The Open Source CFD Toolbox
   \\    /   O peration     | Website:  https://openfoam.org
    \\  /    A nd           | Version:  dev
     \\/     M anipulation  |
\*---------------------------------------------------------------------------*/
FoamFile
{
    format      ascii;
    class       volScalarField;
    location    "0.192307";
    object      T;
}
// * * * * * * * * * * * * * * * * * * * * * * * * * * * * * * * * * * * * * //

dimensions      [0 0 0 1 0 0 0];

internalField   nonuniform List<scalar> 
100
(
237.316
210.177
202.664
199.78
198.459
197.787
197.428
197.237
197.144
197.111
197.118
197.151
197.202
197.264
197.334
197.407
197.48
197.553
197.622
197.687
197.748
197.802
197.852
197.897
197.939
197.98
198.023
198.069
198.125
198.193
198.279
198.389
198.529
198.706
198.927
199.199
199.53
199.927
200.399
200.952
201.594
202.334
203.179
204.137
205.215
206.421
207.763
209.249
210.888
212.686
214.654
216.8
219.133
221.662
224.397
227.347
230.521
233.926
237.562
241.432
245.541
249.91
254.571
259.574
264.971
270.81
277.119
283.897
291.108
298.682
306.533
314.567
322.703
330.851
339.066
346.58
357.58
348.934
385.121
385.124
385.126
385.128
385.13
385.131
385.133
385.135
385.136
385.138
385.139
385.141
385.142
385.143
385.144
385.145
385.146
385.147
385.148
385.149
385.149
385.14
)
;

boundaryField
{
    frontHeated
    {
        type            fixedValue;
        value           uniform 385.15;
    }
    backOutlet
    {
        type            fixedValue;
        value           uniform 385.15;
    }
    defaultFaces
    {
        type            empty;
    }
}


// ************************************************************************* //
