/*--------------------------------*- C++ -*----------------------------------*\
  =========                 |
  \\      /  F ield         | OpenFOAM: The Open Source CFD Toolbox
   \\    /   O peration     | Website:  https://openfoam.org
    \\  /    A nd           | Version:  dev
     \\/     M anipulation  |
\*---------------------------------------------------------------------------*/
FoamFile
{
    format      ascii;
    class       volScalarField;
    location    "0.179734";
    object      rhoSmear;
}
// * * * * * * * * * * * * * * * * * * * * * * * * * * * * * * * * * * * * * //

dimensions      [1 -3 -1 0 0 0 0];

internalField   nonuniform List<scalar> 
100
(
9.49369e-15
1.05485e-14
1.27755e-14
1.64219e-14
2.18929e-14
2.97965e-14
4.10109e-14
5.6782e-14
7.88622e-14
1.09705e-13
1.52737e-13
2.1274e-13
2.96381e-13
4.12952e-13
5.75408e-13
8.01797e-13
1.11728e-12
1.5569e-12
2.1695e-12
3.02317e-12
4.21274e-12
5.87039e-12
8.18031e-12
1.13992e-11
1.58846e-11
2.21349e-11
3.08448e-11
4.29818e-11
5.98945e-11
8.34622e-11
1.16303e-10
1.62067e-10
2.25839e-10
3.14703e-10
4.38535e-10
6.11093e-10
8.51549e-10
1.18662e-09
1.65354e-09
2.30419e-09
3.21086e-09
4.47429e-09
6.23487e-09
8.6882e-09
1.21069e-08
1.68708e-08
2.35092e-08
3.27598e-08
4.56504e-08
6.36132e-08
8.86441e-08
1.23524e-07
1.7213e-07
2.3986e-07
3.34242e-07
4.65762e-07
6.49034e-07
9.0442e-07
1.2603e-06
1.75621e-06
2.44725e-06
3.41021e-06
4.75209e-06
6.62197e-06
9.22763e-06
1.28586e-05
1.79183e-05
2.49689e-05
3.47938e-05
4.84847e-05
6.75627e-05
9.41478e-05
0.000131194
0
0
0
0
0
0
0
0
0
0
-0.000131198
-9.41522e-05
-6.75681e-05
-4.84915e-05
-3.48029e-05
-2.49813e-05
-1.79354e-05
-1.28822e-05
-9.2605e-06
-6.6677e-06
-4.81576e-06
-3.4989e-06
-2.57081e-06
-1.92836e-06
-1.50018e-06
-1.23868e-06
-1.11481e-06
)
;

boundaryField
{
    frontHeated
    {
        type            zeroGradient;
    }
    backOutlet
    {
        type            zeroGradient;
    }
    defaultFaces
    {
        type            empty;
    }
}


// ************************************************************************* //
