/*--------------------------------*- C++ -*----------------------------------*\
  =========                 |
  \\      /  F ield         | OpenFOAM: The Open Source CFD Toolbox
   \\    /   O peration     | Website:  https://openfoam.org
    \\  /    A nd           | Version:  dev
     \\/     M anipulation  |
\*---------------------------------------------------------------------------*/
FoamFile
{
    format      ascii;
    class       volVectorField;
    location    "0.235804";
    object      U;
}
// * * * * * * * * * * * * * * * * * * * * * * * * * * * * * * * * * * * * * //

dimensions      [0 1 -1 0 0 0 0];

internalField   nonuniform List<vector> 
100
(
(0.0297203 0 0)
(0.0792836 0 0)
(0.121964 0 0)
(0.161786 0 0)
(0.20092 0 0)
(0.240108 0 0)
(0.279463 0 0)
(0.318926 0 0)
(0.358435 0 0)
(0.397957 0 0)
(0.437483 0 0)
(0.477012 0 0)
(0.516545 0 0)
(0.556085 0 0)
(0.595635 0 0)
(0.635198 0 0)
(0.67478 0 0)
(0.714388 0 0)
(0.754028 0 0)
(0.793708 0 0)
(0.833435 0 0)
(0.873214 0 0)
(0.913051 0 0)
(0.952948 0 0)
(0.992906 0 0)
(1.03292 0 0)
(1.07299 0 0)
(1.1131 0 0)
(1.15324 0 0)
(1.19339 0 0)
(1.23352 0 0)
(1.2736 0 0)
(1.31359 0 0)
(1.35344 0 0)
(1.39309 0 0)
(1.43249 0 0)
(1.47155 0 0)
(1.5102 0 0)
(1.54835 0 0)
(1.58592 0 0)
(1.6228 0 0)
(1.6589 0 0)
(1.69413 0 0)
(1.72835 0 0)
(1.76146 0 0)
(1.79333 0 0)
(1.82387 0 0)
(1.85299 0 0)
(1.8806 0 0)
(1.90665 0 0)
(1.93107 0 0)
(1.95381 0 0)
(1.97482 0 0)
(1.99403 0 0)
(2.01141 0 0)
(2.0269 0 0)
(2.04047 0 0)
(2.0521 0 0)
(2.06176 0 0)
(2.06945 0 0)
(2.07516 0 0)
(2.07892 0 0)
(2.08073 0 0)
(2.08066 0 0)
(2.07873 0 0)
(2.07504 0 0)
(2.06969 0 0)
(2.06286 0 0)
(2.05473 0 0)
(2.0455 0 0)
(2.0353 0 0)
(2.02422 0 0)
(2.01217 0 0)
(1.99892 0 0)
(1.98395 0 0)
(1.96651 0 0)
(1.94563 0 0)
(1.92027 0 0)
(1.88966 0 0)
(1.85349 0 0)
(1.81213 0 0)
(1.76739 0 0)
(1.7217 0 0)
(1.67724 0 0)
(1.63794 0 0)
(1.61097 0 0)
(1.60313 0 0)
(1.61573 0 0)
(1.63544 0 0)
(1.65012 0 0)
(1.67906 0 0)
(1.7213 0 0)
(1.81795 0 0)
(1.90373 0 0)
(1.92719 0 0)
(2.47999 0 0)
(4.03052 0 0)
(4.74792 0 0)
(3.71809 0 0)
(8.76383 0 0)
)
;

boundaryField
{
    frontHeated
    {
        type            noSlip;
    }
    backOutlet
    {
        type            pressureInletOutletVelocity;
        value           uniform (8.76383 0 0);
    }
    defaultFaces
    {
        type            empty;
    }
}


// ************************************************************************* //
