/*--------------------------------*- C++ -*----------------------------------*\
  =========                 |
  \\      /  F ield         | OpenFOAM: The Open Source CFD Toolbox
   \\    /   O peration     | Website:  https://openfoam.org
    \\  /    A nd           | Version:  dev
     \\/     M anipulation  |
\*---------------------------------------------------------------------------*/
FoamFile
{
    format      ascii;
    class       volScalarField;
    location    "0.230997";
    object      epsilon;
}
// * * * * * * * * * * * * * * * * * * * * * * * * * * * * * * * * * * * * * //

dimensions      [0 2 -3 0 0 0 0];

internalField   nonuniform List<scalar> 
100
(
0.0132578
0.0155995
0.0188731
0.0215484
0.0238932
0.0260601
0.0281096
0.0300652
0.0319362
0.033725
0.0354303
0.0370489
0.0385771
0.0400116
0.0413495
0.0425885
0.0437269
0.0447633
0.0456966
0.0465263
0.0472522
0.0478741
0.0483926
0.0488081
0.0491216
0.0493344
0.0494477
0.0494634
0.0493834
0.0492098
0.0489453
0.0485926
0.0481548
0.0476354
0.0470382
0.0463675
0.045628
0.0448246
0.0439627
0.0430473
0.0420837
0.041077
0.0400328
0.0389568
0.0378553
0.0367341
0.0355988
0.0344544
0.0333054
0.0321555
0.0310084
0.0298671
0.0287347
0.0276139
0.0265073
0.0254173
0.024346
0.0232955
0.0222673
0.0212629
0.0202834
0.0193295
0.0184019
0.0175008
0.0166263
0.0157784
0.0149574
0.0141635
0.0133974
0.0126603
0.011954
0.0112812
0.0106451
0.01005
0.00950066
0.00900261
0.0085616
0.00818383
0.0078763
0.00764774
0.00750963
0.00747745
0.0075706
0.0078127
0.00819083
0.00872203
0.00951966
0.0107557
0.0126331
0.0142514
0.0182763
0.0284928
0.029564
0.215107
83.7312
0.40414
0.326634
0.214143
0.19705
0.248308
)
;

boundaryField
{
    frontHeated
    {
        type            epsilonWallFunction;
        value           uniform 0.0132578;
    }
    backOutlet
    {
        type            inletOutlet;
        inletValue      uniform 0.1;
        value           uniform 0.248308;
    }
    defaultFaces
    {
        type            empty;
    }
}


// ************************************************************************* //
