/*--------------------------------*- C++ -*----------------------------------*\
  =========                 |
  \\      /  F ield         | OpenFOAM: The Open Source CFD Toolbox
   \\    /   O peration     | Website:  https://openfoam.org
    \\  /    A nd           | Version:  dev
     \\/     M anipulation  |
\*---------------------------------------------------------------------------*/
FoamFile
{
    format      ascii;
    class       volScalarField;
    location    "0.230997";
    object      T;
}
// * * * * * * * * * * * * * * * * * * * * * * * * * * * * * * * * * * * * * //

dimensions      [0 0 0 1 0 0 0];

internalField   nonuniform List<scalar> 
100
(
240.834
205.588
194.858
190.489
188.403
187.3
186.677
186.311
186.094
185.969
185.904
185.878
185.88
185.902
185.937
185.982
186.034
186.09
186.148
186.206
186.264
186.321
186.375
186.426
186.474
186.519
186.561
186.6
186.638
186.675
186.712
186.751
186.795
186.845
186.903
186.973
187.058
187.16
187.284
187.433
187.611
187.822
188.07
188.359
188.693
189.076
189.514
190.009
190.567
191.191
191.886
192.655
193.504
194.436
195.455
196.566
197.773
199.081
200.493
202.015
203.651
205.405
207.282
209.286
211.421
213.69
216.097
218.647
221.345
224.198
227.214
230.403
233.776
237.346
241.123
245.116
249.331
253.769
258.428
263.299
268.369
273.622
279.024
284.58
290.227
295.836
301.372
307
313.269
319.748
326.891
335.66
344.421
355.396
376.24
385.118
385.121
385.122
385.125
384.695
)
;

boundaryField
{
    frontHeated
    {
        type            fixedValue;
        value           uniform 385.15;
    }
    backOutlet
    {
        type            fixedValue;
        value           uniform 385.15;
    }
    defaultFaces
    {
        type            empty;
    }
}


// ************************************************************************* //
