/*--------------------------------*- C++ -*----------------------------------*\
  =========                 |
  \\      /  F ield         | OpenFOAM: The Open Source CFD Toolbox
   \\    /   O peration     | Website:  https://openfoam.org
    \\  /    A nd           | Version:  dev
     \\/     M anipulation  |
\*---------------------------------------------------------------------------*/
FoamFile
{
    format      ascii;
    class       volScalarField;
    location    "0.162748";
    object      rhoSmear;
}
// * * * * * * * * * * * * * * * * * * * * * * * * * * * * * * * * * * * * * //

dimensions      [1 -3 -1 0 0 0 0];

internalField   nonuniform List<scalar> 
100
(
1.28783e-13
1.43092e-13
1.73301e-13
2.22765e-13
2.9698e-13
4.04194e-13
5.56318e-13
7.70255e-13
1.06978e-12
1.48816e-12
2.0719e-12
2.88584e-12
4.02044e-12
5.60175e-12
7.80548e-12
1.08765e-11
1.5156e-11
2.11195e-11
2.94296e-11
4.10097e-11
5.71464e-11
7.96327e-11
1.10967e-10
1.54631e-10
2.15476e-10
3.00263e-10
4.18413e-10
5.83053e-10
8.12477e-10
1.13218e-09
1.57767e-09
2.19846e-09
3.06353e-09
4.26899e-09
5.94878e-09
8.28955e-09
1.15514e-08
1.60967e-08
2.24305e-08
3.12566e-08
4.35557e-08
6.06943e-08
8.45768e-08
1.17857e-07
1.64232e-07
2.28855e-07
3.18906e-07
4.44391e-07
6.19253e-07
8.62921e-07
1.20247e-06
1.67562e-06
2.33496e-06
3.25374e-06
4.53404e-06
6.31812e-06
8.80422e-06
1.22686e-05
1.70961e-05
2.38232e-05
3.31973e-05
4.626e-05
6.44627e-05
8.98279e-05
0.000125174
0
0
0
0
0
0
0
0
0
0
-0.000125174
-8.98279e-05
-6.44627e-05
-4.626e-05
-3.31973e-05
-2.38232e-05
-1.70962e-05
-1.22687e-05
-8.80438e-06
-6.31834e-06
-4.53434e-06
-3.25416e-06
-2.33554e-06
-1.67644e-06
-1.2036e-06
-8.64499e-07
-6.21452e-07
-4.47455e-07
-3.23175e-07
-2.34803e-07
-1.72521e-07
-1.29408e-07
-1.00673e-07
-8.31249e-08
-7.48124e-08
)
;

boundaryField
{
    frontHeated
    {
        type            zeroGradient;
    }
    backOutlet
    {
        type            zeroGradient;
    }
    defaultFaces
    {
        type            empty;
    }
}


// ************************************************************************* //
