/*--------------------------------*- C++ -*----------------------------------*\
  =========                 |
  \\      /  F ield         | OpenFOAM: The Open Source CFD Toolbox
   \\    /   O peration     | Website:  https://openfoam.org
    \\  /    A nd           | Version:  dev
     \\/     M anipulation  |
\*---------------------------------------------------------------------------*/
FoamFile
{
    format      ascii;
    class       volScalarField;
    location    "0.162748";
    object      thermo:rho;
}
// * * * * * * * * * * * * * * * * * * * * * * * * * * * * * * * * * * * * * //

dimensions      [1 -3 0 0 0 0 0];

internalField   nonuniform List<scalar> 
100
(
0.0914232
0.0998576
0.102253
0.10316
0.103566
0.103762
0.103856
0.103893
0.103898
0.103881
0.103852
0.103814
0.103772
0.103728
0.103684
0.103642
0.103603
0.103568
0.103537
0.103509
0.103486
0.103465
0.103444
0.103421
0.103393
0.103356
0.103305
0.103235
0.103141
0.103017
0.102856
0.102652
0.1024
0.102094
0.101727
0.101295
0.100793
0.100218
0.0995645
0.0988308
0.0980142
0.0971129
0.0961254
0.0950512
0.0938901
0.0926425
0.0913096
0.0898931
0.0883958
0.0868214
0.0851747
0.0834611
0.0816966
0.0798636
0.0780375
0.0762553
0.074444
0.072476
0.0702705
0.067839
0.0653345
0.0629316
0.0603625
0.0604399
0.0442091
449.732
876.916
916.88
939.535
952.406
959.733
963.915
966.308
967.68
968.47
968.924
969.187
969.34
969.428
969.48
969.51
969.528
969.538
969.544
969.548
969.55
969.551
969.551
969.551
969.552
969.552
969.552
969.552
969.552
969.552
969.552
969.552
969.552
969.551
969.546
)
;

boundaryField
{
    frontHeated
    {
        type            calculated;
        value           uniform 0.0562093;
    }
    backOutlet
    {
        type            calculated;
        value           uniform 969.547;
    }
    defaultFaces
    {
        type            empty;
    }
}


// ************************************************************************* //
