/*--------------------------------*- C++ -*----------------------------------*\
  =========                 |
  \\      /  F ield         | OpenFOAM: The Open Source CFD Toolbox
   \\    /   O peration     | Website:  https://openfoam.org
    \\  /    A nd           | Version:  dev
     \\/     M anipulation  |
\*---------------------------------------------------------------------------*/
FoamFile
{
    format      ascii;
    class       volVectorField;
    location    "0.162748";
    object      U;
}
// * * * * * * * * * * * * * * * * * * * * * * * * * * * * * * * * * * * * * //

dimensions      [0 1 -1 0 0 0 0];

internalField   nonuniform List<vector> 
100
(
(0.0465819 0 0)
(0.11683 0 0)
(0.181295 0 0)
(0.245781 0 0)
(0.310605 0 0)
(0.37529 0 0)
(0.439793 0 0)
(0.504242 0 0)
(0.568701 0 0)
(0.633174 0 0)
(0.697654 0 0)
(0.762144 0 0)
(0.82665 0 0)
(0.891178 0 0)
(0.955732 0 0)
(1.02032 0 0)
(1.08494 0 0)
(1.14959 0 0)
(1.21427 0 0)
(1.27899 0 0)
(1.34374 0 0)
(1.4085 0 0)
(1.47328 0 0)
(1.53804 0 0)
(1.60277 0 0)
(1.66744 0 0)
(1.73201 0 0)
(1.79643 0 0)
(1.86065 0 0)
(1.92467 0 0)
(1.98823 0 0)
(2.0517 0 0)
(2.11519 0 0)
(2.17752 0 0)
(2.23871 0 0)
(2.29961 0 0)
(2.36025 0 0)
(2.42034 0 0)
(2.47971 0 0)
(2.53825 0 0)
(2.59595 0 0)
(2.6528 0 0)
(2.70879 0 0)
(2.76388 0 0)
(2.81804 0 0)
(2.87126 0 0)
(2.92351 0 0)
(2.97479 0 0)
(3.0251 0 0)
(3.07446 0 0)
(3.12298 0 0)
(3.17056 0 0)
(3.21843 0 0)
(3.26339 0 0)
(3.31219 0 0)
(3.36933 0 0)
(3.41623 0 0)
(3.45644 0 0)
(3.50221 0 0)
(3.49581 0 0)
(3.39627 0 0)
(3.26397 0 0)
(3.21304 0 0)
(3.31167 0 0)
(4.54982 0 0)
(4.55014 0 0)
(4.56829 0 0)
(4.63829 0 0)
(4.66711 0 0)
(4.66338 0 0)
(4.6579 0 0)
(4.65303 0 0)
(4.65023 0 0)
(4.64827 0 0)
(4.64671 0 0)
(4.64531 0 0)
(4.64393 0 0)
(4.64244 0 0)
(4.6407 0 0)
(4.63849 0 0)
(4.6356 0 0)
(4.63185 0 0)
(4.62725 0 0)
(4.62193 0 0)
(4.61614 0 0)
(4.6101 0 0)
(4.60396 0 0)
(4.59776 0 0)
(4.59145 0 0)
(4.58494 0 0)
(4.57814 0 0)
(4.57095 0 0)
(4.56331 0 0)
(4.55519 0 0)
(4.54638 0 0)
(4.53818 0 0)
(4.52163 0 0)
(4.56397 0 0)
(4.24518 0 0)
(6.70041 0 0)
)
;

boundaryField
{
    frontHeated
    {
        type            noSlip;
    }
    backOutlet
    {
        type            pressureInletOutletVelocity;
        value           uniform (6.70041 0 0);
    }
    defaultFaces
    {
        type            empty;
    }
}


// ************************************************************************* //
