/*--------------------------------*- C++ -*----------------------------------*\
  =========                 |
  \\      /  F ield         | OpenFOAM: The Open Source CFD Toolbox
   \\    /   O peration     | Website:  https://openfoam.org
    \\  /    A nd           | Version:  dev
     \\/     M anipulation  |
\*---------------------------------------------------------------------------*/
FoamFile
{
    format      ascii;
    class       volScalarField;
    location    "0.0690328";
    object      p;
}
// * * * * * * * * * * * * * * * * * * * * * * * * * * * * * * * * * * * * * //

dimensions      [1 -1 -2 0 0 0 0];

internalField   nonuniform List<scalar> 
100
(
29161.7
29161.7
29161.7
29161.7
29161.7
29161.7
29161.7
29161.7
29161.6
29161.6
29161.5
29161.5
29161.5
29161.4
29161.3
29161.3
29161.2
29161.1
29161
29160.9
29160.8
29160.7
29160.5
29160.3
29160.2
29223.7
28795.8
28457.4
28184.1
27905.9
27621.3
27339.4
27058.1
26776.4
26494.3
26211.5
25927.8
25642.9
25356.5
25068.6
24779
24487.8
24194.9
23900.6
23605
23308.3
23010.8
22712.7
22414
22115
21815.7
21516.2
21216.6
20916.9
20617.2
20317.3
20017.5
19717.6
19417.7
19117.8
18818
18518
18218.1
17918.2
17618.3
17318.4
17018.5
16718.6
16418.7
16118.8
15818.9
15519
15219.1
14919.1
14619.2
14319.3
14019.4
13719.5
13419.6
13119.7
12819.8
12519.9
12220
11920
11620.1
11320.2
11020.4
10719.6
10421
10118.1
10000
10000
10000
10000
10000
10000
10000
10000
10000
10000
)
;

boundaryField
{
    frontHeated
    {
        type            calculated;
        value           uniform 29161.7;
    }
    backOutlet
    {
        type            calculated;
        value           uniform 10000;
    }
    defaultFaces
    {
        type            empty;
    }
}


// ************************************************************************* //
