/*--------------------------------*- C++ -*----------------------------------*\
  =========                 |
  \\      /  F ield         | OpenFOAM: The Open Source CFD Toolbox
   \\    /   O peration     | Website:  https://openfoam.org
    \\  /    A nd           | Version:  dev
     \\/     M anipulation  |
\*---------------------------------------------------------------------------*/
FoamFile
{
    format      ascii;
    class       volScalarField;
    location    "0.0690328";
    object      p_rgh;
}
// * * * * * * * * * * * * * * * * * * * * * * * * * * * * * * * * * * * * * //

dimensions      [1 -1 -2 0 0 0 0];

internalField   nonuniform List<scalar> 
100
(
29162.8
29162.8
29162.8
29162.8
29162.8
29162.8
29162.8
29162.8
29162.7
29162.7
29162.7
29162.6
29162.6
29162.5
29162.4
29162.4
29162.3
29162.2
29162.1
29162
29161.8
29161.6
29161.4
29161.2
29161
29855.5
33008.3
32906.9
32767.1
32564.2
32322
32064.1
31796.3
31522.2
31244.4
30964
30681.7
30397.5
30111.6
29824
29534.5
29243.3
28950.5
28656.2
28360.6
28064
27766.5
27468.3
27169.7
26870.7
26571.4
26271.9
25972.3
25672.6
25372.8
25073
24773.1
24473.3
24173.4
23873.5
23573.6
23273.7
22973.8
22673.9
22374
22074.1
21774.2
21474.3
21174.3
20874.4
20574.5
20274.6
19974.7
19674.8
19374.9
19075
18775.1
18475.2
18175.3
17875.3
17575.4
17275.5
16975.6
16675.7
16375.8
16075.9
15776
15475.3
15176.7
14873.7
14755.7
14755.7
14755.7
14755.7
14755.7
14755.7
14755.7
14755.7
14755.7
14755.7
)
;

boundaryField
{
    frontHeated
    {
        type            fixedFluxPressure;
        gradient        uniform -58.012;
        value           uniform 29162.5;
    }
    backOutlet
    {
        type            prghTotalPressure;
        rho             thermo:rho;
        psi             none;
        gamma           1;
        p0              uniform 0;
        value           uniform 4755.66;
        rho             thermo:rho;
    }
    defaultFaces
    {
        type            empty;
    }
}


// ************************************************************************* //
