/*--------------------------------*- C++ -*----------------------------------*\
  =========                 |
  \\      /  F ield         | OpenFOAM: The Open Source CFD Toolbox
   \\    /   O peration     | Website:  https://openfoam.org
    \\  /    A nd           | Version:  dev
     \\/     M anipulation  |
\*---------------------------------------------------------------------------*/
FoamFile
{
    format      ascii;
    class       volScalarField;
    location    "0.0385805";
    object      thermo:rho;
}
// * * * * * * * * * * * * * * * * * * * * * * * * * * * * * * * * * * * * * //

dimensions      [1 -3 0 0 0 0 0];

internalField   nonuniform List<scalar> 
100
(
0.572265
0.572523
0.572552
0.572555
0.57255
0.572536
0.572496
0.572364
0.571584
1.23171
484.044
969.525
969.553
969.553
969.553
969.553
969.553
969.553
969.553
969.553
969.553
969.553
969.553
969.553
969.553
969.553
969.553
969.553
969.553
969.553
969.553
969.553
969.553
969.553
969.553
969.553
969.553
969.553
969.553
969.553
969.553
969.553
969.553
969.553
969.553
969.553
969.553
969.553
969.553
969.553
969.553
969.553
969.553
969.553
969.553
969.553
969.553
969.553
969.553
969.553
969.553
969.553
969.553
969.553
969.553
969.553
969.553
969.553
969.553
969.553
969.553
969.553
969.553
969.553
969.553
969.553
969.553
969.553
969.553
969.553
969.553
969.553
969.553
969.553
969.553
969.553
969.553
969.553
969.553
969.553
969.553
969.553
969.553
969.553
969.553
969.553
969.553
969.553
969.553
969.386
)
;

boundaryField
{
    frontHeated
    {
        type            calculated;
        value           uniform 0.562184;
    }
    backOutlet
    {
        type            calculated;
        value           uniform 969.386;
    }
    defaultFaces
    {
        type            empty;
    }
}


// ************************************************************************* //
