/*--------------------------------*- C++ -*----------------------------------*\
  =========                 |
  \\      /  F ield         | OpenFOAM: The Open Source CFD Toolbox
   \\    /   O peration     | Website:  https://openfoam.org
    \\  /    A nd           | Version:  dev
     \\/     M anipulation  |
\*---------------------------------------------------------------------------*/
FoamFile
{
    format      ascii;
    class       volScalarField;
    location    "0.07693";
    object      p;
}
// * * * * * * * * * * * * * * * * * * * * * * * * * * * * * * * * * * * * * //

dimensions      [1 -1 -2 0 0 0 0];

internalField   nonuniform List<scalar> 
100
(
25411.9
25411.9
25411.9
25411.9
25411.9
25411.9
25411.9
25411.8
25411.8
25411.8
25411.8
25411.7
25411.7
25411.7
25411.6
25411.6
25411.5
25411.5
25411.4
25411.4
25411.3
25411.2
25411.1
25411
25410.9
25410.7
25410.5
25410.4
25505.9
25064.6
24753.9
24527.3
24291.9
24049.1
23810.3
23572.5
23334.3
23096.1
22857.5
22618.4
22378.5
22137.7
21895.8
21652.8
21408.6
21163.1
20916.5
20668.7
20420
20170.4
19920.2
19669.4
19418.2
19166.6
18914.8
18662.8
18410.7
18158.5
17906.2
17653.8
17401.5
17149.1
16896.6
16644.2
16391.8
16139.3
15886.9
15634.4
15382
15129.5
14877.1
14624.6
14372.2
14119.7
13867.3
13614.8
13362.4
13109.9
12857.5
12605
12352.6
12100.1
11847.7
11595.2
11342.8
11090.3
10837.9
10585
10333.8
10081.1
10000
10000
10000
10000
10000
10000
10000
10000
10000
10000
)
;

boundaryField
{
    frontHeated
    {
        type            calculated;
        value           uniform 25411.9;
    }
    backOutlet
    {
        type            calculated;
        value           uniform 10000;
    }
    defaultFaces
    {
        type            empty;
    }
}


// ************************************************************************* //
