/*--------------------------------*- C++ -*----------------------------------*\
  =========                 |
  \\      /  F ield         | OpenFOAM: The Open Source CFD Toolbox
   \\    /   O peration     | Website:  https://openfoam.org
    \\  /    A nd           | Version:  dev
     \\/     M anipulation  |
\*---------------------------------------------------------------------------*/
FoamFile
{
    format      ascii;
    class       volScalarField;
    location    "0.0249587";
    object      p;
}
// * * * * * * * * * * * * * * * * * * * * * * * * * * * * * * * * * * * * * //

dimensions      [1 -1 -2 0 0 0 0];

internalField   nonuniform List<scalar> 
100
(
70979.7
70979.7
70979.7
70979.6
70979.5
70979.4
70979.2
70978.9
70978.7
70978.4
70978.2
70978
70977
70322.4
69633.3
69037.5
68410.6
67746.7
67063.7
66369.9
65662.2
64946
64225.6
63503.1
62779.7
62055.9
61331.8
60607.6
59883.3
59159.1
58434.8
57710.5
56986.3
56262
55537.7
54813.4
54089.2
53364.9
52640.6
51916.3
51192.1
50467.8
49743.5
49019.2
48295
47570.7
46846.4
46122.1
45397.9
44673.6
43949.3
43225
42500.7
41776.5
41052.2
40327.9
39603.6
38879.4
38155.1
37430.8
36706.5
35982.3
35258
34533.7
33809.4
33085.1
32360.9
31636.6
30912.3
30188
29463.8
28739.5
28015.2
27290.9
26566.7
25842.4
25118.1
24393.8
23669.5
22945.3
22221
21496.7
20772.4
20048
19323.3
18598.2
17872.3
17141.3
16395.3
15629.5
14836.1
14014.4
12977.5
10970
10000
10000
10000
10000
10000
10000
)
;

boundaryField
{
    frontHeated
    {
        type            calculated;
        value           uniform 70979.7;
    }
    backOutlet
    {
        type            calculated;
        value           uniform 10000;
    }
    defaultFaces
    {
        type            empty;
    }
}


// ************************************************************************* //
