/*--------------------------------*- C++ -*----------------------------------*\
  =========                 |
  \\      /  F ield         | OpenFOAM: The Open Source CFD Toolbox
   \\    /   O peration     | Website:  https://openfoam.org
    \\  /    A nd           | Version:  dev
     \\/     M anipulation  |
\*---------------------------------------------------------------------------*/
FoamFile
{
    format      ascii;
    class       volVectorField;
    location    "0.0710351";
    object      U;
}
// * * * * * * * * * * * * * * * * * * * * * * * * * * * * * * * * * * * * * //

dimensions      [0 1 -1 0 0 0 0];

internalField   nonuniform List<vector> 
100
(
(0.000158332 0 0)
(0.000137096 0 0)
(0.000206614 0 0)
(0.000258861 0 0)
(0.000306159 0 0)
(0.000351595 0 0)
(0.000402934 0 0)
(0.000511709 0 0)
(0.000462049 0 0)
(0.00061415 0 0)
(0.000644548 0 0)
(0.000563213 0 0)
(0.000638445 0 0)
(0.00063766 0 0)
(0.000635294 0 0)
(0.000635337 0 0)
(0.000635682 0 0)
(0.000635857 0 0)
(0.00063591 0 0)
(0.000635922 0 0)
(0.000635932 0 0)
(0.000635939 0 0)
(0.000635943 0 0)
(0.000635944 0 0)
(0.000635945 0 0)
(0.000635945 0 0)
(0.000635945 0 0)
(0.000635945 0 0)
(0.000635945 0 0)
(0.000635945 0 0)
(0.000635945 0 0)
(0.000635945 0 0)
(0.000635945 0 0)
(0.000635945 0 0)
(0.000635945 0 0)
(0.000635945 0 0)
(0.000635945 0 0)
(0.000635945 0 0)
(0.000635945 0 0)
(0.000635945 0 0)
(0.000635945 0 0)
(0.000635945 0 0)
(0.000635945 0 0)
(0.000635945 0 0)
(0.000635945 0 0)
(0.000635945 0 0)
(0.000635945 0 0)
(0.000635945 0 0)
(0.000635945 0 0)
(0.000635945 0 0)
(0.000635945 0 0)
(0.000635945 0 0)
(0.000635945 0 0)
(0.000635945 0 0)
(0.000635945 0 0)
(0.000635945 0 0)
(0.000635945 0 0)
(0.000635945 0 0)
(0.000635945 0 0)
(0.000635945 0 0)
(0.000635945 0 0)
(0.000635945 0 0)
(0.000635945 0 0)
(0.000635945 0 0)
(0.000635945 0 0)
(0.000635945 0 0)
(0.000635945 0 0)
(0.000635945 0 0)
(0.000635945 0 0)
(0.000635945 0 0)
(0.000635945 0 0)
(0.000635945 0 0)
(0.000635945 0 0)
(0.000635945 0 0)
(0.000635945 0 0)
(0.000635945 0 0)
(0.000635945 0 0)
(0.000635945 0 0)
(0.000635945 0 0)
(0.000635945 0 0)
(0.000635945 0 0)
(0.000635945 0 0)
(0.000635945 0 0)
(0.000635945 0 0)
(0.000635945 0 0)
(0.000635945 0 0)
(0.000635944 0 0)
(0.000635944 0 0)
(0.000635942 0 0)
(0.000635938 0 0)
(0.000635931 0 0)
(0.000635917 0 0)
(0.000635888 0 0)
(0.000635828 0 0)
(0.000635703 0 0)
(0.000635459 0 0)
(0.000635046 0 0)
(0.000634468 0 0)
(0.000633842 0 0)
(0.000633661 0 0)
)
;

boundaryField
{
    frontHeated
    {
        type            noSlip;
    }
    backOutlet
    {
        type            pressureInletOutletVelocity;
        value           uniform (0.000633661 0 0);
    }
    defaultFaces
    {
        type            empty;
    }
}


// ************************************************************************* //
