/*--------------------------------*- C++ -*----------------------------------*\
  =========                 |
  \\      /  F ield         | OpenFOAM: The Open Source CFD Toolbox
   \\    /   O peration     | Website:  https://openfoam.org
    \\  /    A nd           | Version:  dev
     \\/     M anipulation  |
\*---------------------------------------------------------------------------*/
FoamFile
{
    format      ascii;
    class       volScalarField;
    location    "0.154187";
    object      rhoSmear;
}
// * * * * * * * * * * * * * * * * * * * * * * * * * * * * * * * * * * * * * //

dimensions      [1 -3 -1 0 0 0 0];

internalField   nonuniform List<scalar> 
100
(
4.43451e-13
4.92724e-13
5.96743e-13
7.67068e-13
1.02262e-12
1.3918e-12
1.91562e-12
2.65229e-12
3.68366e-12
5.12433e-12
7.13436e-12
9.9371e-12
1.3844e-11
1.92891e-11
2.68774e-11
3.7452e-11
5.21881e-11
7.27228e-11
1.01338e-10
1.41213e-10
1.96778e-10
2.74207e-10
3.82103e-10
5.32456e-10
7.4197e-10
1.03393e-09
1.44076e-09
2.00768e-09
2.79768e-09
3.89853e-09
5.43255e-09
7.57019e-09
1.0549e-08
1.46998e-08
2.0484e-08
2.85442e-08
3.9776e-08
5.54273e-08
7.72372e-08
1.07629e-07
1.4998e-07
2.08995e-07
2.91231e-07
4.05827e-07
5.65515e-07
7.88037e-07
1.09812e-06
1.53021e-06
2.13233e-06
2.97138e-06
4.14058e-06
5.76984e-06
8.0402e-06
1.12039e-05
1.56125e-05
2.17558e-05
3.03164e-05
4.22455e-05
5.88686e-05
8.20326e-05
0.000114311
0
0
0
0
0
0
0
0
0
0
-0.000114311
-8.20326e-05
-5.88686e-05
-4.22456e-05
-3.03164e-05
-2.17558e-05
-1.56125e-05
-1.12039e-05
-8.04021e-06
-5.76985e-06
-4.1406e-06
-2.97141e-06
-2.13237e-06
-1.53027e-06
-1.09819e-06
-7.88138e-07
-5.65656e-07
-4.06024e-07
-2.91505e-07
-2.09377e-07
-1.50512e-07
-1.08371e-07
-7.82711e-08
-5.68681e-08
-4.17837e-08
-3.13419e-08
-2.43825e-08
-2.01324e-08
-1.81191e-08
)
;

boundaryField
{
    frontHeated
    {
        type            zeroGradient;
    }
    backOutlet
    {
        type            zeroGradient;
    }
    defaultFaces
    {
        type            empty;
    }
}


// ************************************************************************* //
