/*--------------------------------*- C++ -*----------------------------------*\
  =========                 |
  \\      /  F ield         | OpenFOAM: The Open Source CFD Toolbox
   \\    /   O peration     | Website:  https://openfoam.org
    \\  /    A nd           | Version:  dev
     \\/     M anipulation  |
\*---------------------------------------------------------------------------*/
FoamFile
{
    format      ascii;
    class       volScalarField;
    location    "0.239714";
    object      k;
}
// * * * * * * * * * * * * * * * * * * * * * * * * * * * * * * * * * * * * * //

dimensions      [0 2 -2 0 0 0 0];

internalField   nonuniform List<scalar> 
100
(
0.000379321
0.00227375
0.00417431
0.00596837
0.00766082
0.00926695
0.0107996
0.0122684
0.0136796
0.0150365
0.0163399
0.0175886
0.01878
0.0199109
0.0209777
0.0219768
0.0229045
0.0237574
0.0245323
0.0252264
0.0258372
0.0263624
0.0268005
0.0271502
0.0274106
0.0275815
0.0276631
0.0276561
0.0275619
0.0273824
0.0271202
0.0267785
0.0263609
0.0258719
0.0253166
0.0247004
0.0240293
0.02331
0.0225491
0.0217537
0.0209307
0.020087
0.0192294
0.0183643
0.0174979
0.016636
0.0157837
0.0149459
0.0141266
0.013329
0.0125559
0.0118093
0.0110909
0.0104015
0.00974193
0.00911241
0.00851292
0.00794317
0.00740265
0.00689068
0.00640645
0.00594902
0.0055174
0.00511053
0.00472732
0.00436669
0.00402755
0.00370884
0.00340956
0.00312874
0.00286547
0.00261892
0.00238831
0.00217291
0.00197209
0.00178523
0.00161182
0.00145138
0.00130345
0.00116764
0.00104362
0.000931095
0.000829856
0.000739768
0.000660633
0.000591969
0.000533085
0.000483301
0.000441966
0.000407583
0.000378734
0.000353758
0.00032394
0.000275614
0.000200416
8.11644e-05
3.32997e-05
0.000501994
0.000708713
0.00100062
)
;

boundaryField
{
    frontHeated
    {
        type            kqRWallFunction;
        value           uniform 0.000379321;
    }
    backOutlet
    {
        type            inletOutlet;
        inletValue      uniform 0.1;
        value           uniform 0.00100062;
    }
    defaultFaces
    {
        type            empty;
    }
}


// ************************************************************************* //
