/*--------------------------------*- C++ -*----------------------------------*\
  =========                 |
  \\      /  F ield         | OpenFOAM: The Open Source CFD Toolbox
   \\    /   O peration     | Website:  https://openfoam.org
    \\  /    A nd           | Version:  dev
     \\/     M anipulation  |
\*---------------------------------------------------------------------------*/
FoamFile
{
    format      ascii;
    class       volScalarField;
    location    "9.097373";
    object      p;
}
// * * * * * * * * * * * * * * * * * * * * * * * * * * * * * * * * * * * * * //

dimensions      [1 -1 -2 0 0 0 0];

internalField   nonuniform List<scalar> 
100
(
99995.5
99995.5
99995.5
99995.5
99995.5
99995.5
99995.5
99995.5
99995.5
99995.5
99995.5
99995.5
99995.5
99995.5
99995.5
99995.5
99995.5
99995.5
99995.6
99995.6
99995.6
99995.7
99995.7
99995.8
99995.8
99995.9
99996
99996
99996.1
99996.1
99996.2
99996.3
99996.3
99996.4
99996.5
99996.6
99996.6
99996.7
99996.8
99996.9
99996.9
99997
99997.1
99997.2
99997.3
99997.3
99997.4
99997.5
99997.6
99997.7
99997.8
99997.8
99997.9
99998
99998.1
99998.2
99998.2
99998.3
99998.4
99998.5
99998.5
99998.6
99998.7
99998.8
99998.9
99998.9
99999
99999.1
99999.1
99999.2
99999.3
99999.3
99999.4
99999.4
99999.5
99999.5
99999.6
99999.6
99999.7
99999.7
99999.8
99999.8
99999.8
99999.9
99999.9
99999.9
99999.9
99999.9
99999.9
99999.9
100000
100000
100000
100000
100000
100000
100000
100000
100000
100000
)
;

boundaryField
{
    frontHeated
    {
        type            calculated;
        value           uniform 99995.5;
    }
    backOutlet
    {
        type            calculated;
        value           uniform 100000;
    }
    defaultFaces
    {
        type            empty;
    }
}


// ************************************************************************* //
