/*--------------------------------*- C++ -*----------------------------------*\
  =========                 |
  \\      /  F ield         | OpenFOAM: The Open Source CFD Toolbox
   \\    /   O peration     | Website:  https://openfoam.org
    \\  /    A nd           | Version:  dev
     \\/     M anipulation  |
\*---------------------------------------------------------------------------*/
FoamFile
{
    format      ascii;
    class       volScalarField;
    location    "0.152041";
    object      p;
}
// * * * * * * * * * * * * * * * * * * * * * * * * * * * * * * * * * * * * * //

dimensions      [1 -1 -2 0 0 0 0];

internalField   nonuniform List<scalar> 
100
(
10002.5
10002.5
10002.5
10002.5
10002.5
10002.5
10002.5
10002.5
10002.5
10002.5
10002.5
10002.5
10002.5
10002.5
10002.5
10002.5
10002.5
10002.5
10002.5
10002.5
10002.5
10002.5
10002.5
10002.5
10002.5
10002.5
10002.5
10002.5
10002.5
10002.5
10002.5
10002.5
10002.5
10002.4
10002.4
10002.4
10002.4
10002.4
10002.4
10002.3
10002.3
10002.3
10002.2
10002.2
10002.2
10002.1
10002.1
10002.1
10002
10002
10001.9
10001.9
10001.8
10001.7
10001.7
10001.6
10001.5
10001.5
10001.3
10001.2
10331.6
10000
10000
10000
10000
10000
10000
10000
10000
10000
10000
10000
10000
10000
10000
10000
10000
10000
10000
10000
10000
10000
10000
10000
10000
10000
10000
10000
10000
10000
10000
10000
10000
10000
10000
10000
10000
10000
10000
10000
)
;

boundaryField
{
    frontHeated
    {
        type            calculated;
        value           uniform 10002.5;
    }
    backOutlet
    {
        type            calculated;
        value           uniform 10000;
    }
    defaultFaces
    {
        type            empty;
    }
}


// ************************************************************************* //
