/*--------------------------------*- C++ -*----------------------------------*\
  =========                 |
  \\      /  F ield         | OpenFOAM: The Open Source CFD Toolbox
   \\    /   O peration     | Website:  https://openfoam.org
    \\  /    A nd           | Version:  dev
     \\/     M anipulation  |
\*---------------------------------------------------------------------------*/
FoamFile
{
    format      ascii;
    class       volScalarField;
    location    "0.152041";
    object      p_rgh;
}
// * * * * * * * * * * * * * * * * * * * * * * * * * * * * * * * * * * * * * //

dimensions      [1 -1 -2 0 0 0 0];

internalField   nonuniform List<scalar> 
100
(
10003
10003
10003
10003
10003
10003
10003
10003
10003
10003
10003
10003
10003
10003
10003
10003
10003
10003
10003
10003
10003
10003
10003
10003
10003
10003
10003
10003
10003
10003
10003
10003
10002.9
10002.9
10002.9
10002.9
10002.9
10002.8
10002.8
10002.8
10002.8
10002.7
10002.7
10002.7
10002.6
10002.6
10002.5
10002.5
10002.4
10002.4
10002.3
10002.2
10002.2
10002.1
10002
10002
10001.9
10001.8
10001.6
10001.4
11913.2
14267
14479.4
14599.5
14667.4
14705.7
14727.4
14739.7
14746.6
14750.6
14752.8
14754
14754.7
14755.1
14755.4
14755.5
14755.6
14755.6
14755.6
14755.6
14755.6
14755.6
14755.7
14755.7
14755.7
14755.7
14755.7
14755.7
14755.7
14755.7
14755.7
14755.7
14755.7
14755.7
14755.7
14755.7
14755.7
14755.7
14755.7
14755.6
)
;

boundaryField
{
    frontHeated
    {
        type            fixedFluxPressure;
        gradient        uniform -34.2801;
        value           uniform 10002.8;
    }
    backOutlet
    {
        type            prghTotalPressure;
        rho             thermo:rho;
        psi             none;
        gamma           1;
        p0              uniform 0;
        value           uniform 4755.65;
        rho             thermo:rho;
    }
    defaultFaces
    {
        type            empty;
    }
}


// ************************************************************************* //
