/*--------------------------------*- C++ -*----------------------------------*\
  =========                 |
  \\      /  F ield         | OpenFOAM: The Open Source CFD Toolbox
   \\    /   O peration     | Website:  https://openfoam.org
    \\  /    A nd           | Version:  dev
     \\/     M anipulation  |
\*---------------------------------------------------------------------------*/
FoamFile
{
    format      ascii;
    class       volScalarField;
    location    "0.152041";
    object      rhoSmear;
}
// * * * * * * * * * * * * * * * * * * * * * * * * * * * * * * * * * * * * * //

dimensions      [1 -3 -1 0 0 0 0];

internalField   nonuniform List<scalar> 
100
(
5.94406e-13
6.60451e-13
7.9988e-13
1.02818e-12
1.37073e-12
1.86558e-12
2.56772e-12
3.55516e-12
4.93761e-12
6.86869e-12
9.56296e-12
1.33198e-11
1.85566e-11
2.58552e-11
3.60266e-11
5.0201e-11
6.99533e-11
9.74782e-11
1.35834e-10
1.89282e-10
2.63762e-10
3.67549e-10
5.12175e-10
7.13708e-10
9.94543e-10
1.38588e-09
1.93121e-09
2.69111e-09
3.75003e-09
5.22562e-09
7.28183e-09
1.01471e-08
1.41399e-08
1.97038e-08
2.74569e-08
3.82609e-08
5.33161e-08
7.42952e-08
1.03529e-07
1.44267e-07
2.01034e-07
2.80138e-07
3.90369e-07
5.43974e-07
7.5802e-07
1.05629e-06
1.47193e-06
2.05111e-06
2.8582e-06
3.98286e-06
5.55006e-06
7.73394e-06
1.07771e-05
1.50178e-05
2.09271e-05
2.91617e-05
4.06364e-05
5.66263e-05
7.8908e-05
0.000109957
0
0
0
0
0
0
0
0
0
0
-0.000109957
-7.8908e-05
-5.66263e-05
-4.06364e-05
-2.91617e-05
-2.09271e-05
-1.50178e-05
-1.07771e-05
-7.73395e-06
-5.55007e-06
-3.98287e-06
-2.85821e-06
-2.05113e-06
-1.47195e-06
-1.05633e-06
-7.58071e-07
-5.44044e-07
-3.90466e-07
-2.80274e-07
-2.01223e-07
-1.44531e-07
-1.03897e-07
-7.48074e-08
-5.40298e-08
-3.92554e-08
-2.88428e-08
-2.1635e-08
-1.6831e-08
-1.38972e-08
-1.25075e-08
)
;

boundaryField
{
    frontHeated
    {
        type            zeroGradient;
    }
    backOutlet
    {
        type            zeroGradient;
    }
    defaultFaces
    {
        type            empty;
    }
}


// ************************************************************************* //
