/*--------------------------------*- C++ -*----------------------------------*\
  =========                 |
  \\      /  F ield         | OpenFOAM: The Open Source CFD Toolbox
   \\    /   O peration     | Website:  https://openfoam.org
    \\  /    A nd           | Version:  dev
     \\/     M anipulation  |
\*---------------------------------------------------------------------------*/
FoamFile
{
    format      ascii;
    class       volScalarField;
    location    "0.0581959";
    object      epsilon;
}
// * * * * * * * * * * * * * * * * * * * * * * * * * * * * * * * * * * * * * //

dimensions      [0 2 -3 0 0 0 0];

internalField   nonuniform List<scalar> 
100
(
0.811583
0.342251
0.21258
0.165153
0.154326
0.171866
0.230564
0.379704
0.703002
11.0196
0.793413
0.818255
0.299497
0.177053
0.130934
0.109899
0.0995562
0.0943978
0.0918716
0.0906751
0.0901297
0.0898901
0.0897884
0.0897466
0.0897298
0.0897232
0.0897207
0.0897197
0.0897193
0.0897192
0.0897192
0.0897191
0.0897191
0.0897191
0.0897191
0.0897191
0.0897191
0.0897191
0.0897191
0.0897191
0.0897191
0.0897191
0.0897191
0.0897191
0.0897191
0.0897191
0.0897191
0.0897191
0.0897191
0.0897191
0.0897191
0.0897191
0.0897191
0.0897191
0.0897191
0.0897191
0.0897191
0.0897191
0.0897191
0.0897191
0.0897191
0.0897191
0.0897191
0.0897191
0.0897191
0.0897191
0.0897191
0.0897191
0.0897191
0.0897191
0.0897191
0.0897191
0.0897191
0.0897191
0.0897191
0.0897191
0.0897191
0.0897191
0.0897191
0.0897191
0.0897192
0.0897192
0.0897194
0.0897199
0.0897211
0.0897243
0.0897328
0.0897542
0.089807
0.0899339
0.0902289
0.0908893
0.0923083
0.0952304
0.10102
0.112203
0.133793
0.176993
0.269656
0.467157
)
;

boundaryField
{
    frontHeated
    {
        type            epsilonWallFunction;
        value           uniform 0.811583;
    }
    backOutlet
    {
        type            inletOutlet;
        inletValue      uniform 0.1;
        value           uniform 0.467157;
    }
    defaultFaces
    {
        type            empty;
    }
}


// ************************************************************************* //
