/*--------------------------------*- C++ -*----------------------------------*\
  =========                 |
  \\      /  F ield         | OpenFOAM: The Open Source CFD Toolbox
   \\    /   O peration     | Website:  https://openfoam.org
    \\  /    A nd           | Version:  dev
     \\/     M anipulation  |
\*---------------------------------------------------------------------------*/
FoamFile
{
    format      ascii;
    class       volScalarField;
    location    "0.19438";
    object      thermo:rho;
}
// * * * * * * * * * * * * * * * * * * * * * * * * * * * * * * * * * * * * * //

dimensions      [1 -3 0 0 0 0 0];

internalField   nonuniform List<scalar> 
100
(
0.0911743
0.10317
0.107093
0.108684
0.109431
0.109815
0.110023
0.110134
0.11019
0.110211
0.110209
0.110193
0.110165
0.110132
0.110094
0.110054
0.110013
0.109973
0.109934
0.109897
0.109864
0.109833
0.109805
0.109779
0.109756
0.109733
0.10971
0.109685
0.109656
0.10962
0.109576
0.10952
0.109448
0.109358
0.109246
0.109107
0.108939
0.108738
0.1085
0.108221
0.107897
0.107527
0.107107
0.106633
0.106105
0.105519
0.104873
0.104167
0.103399
0.102568
0.101673
0.100715
0.0996921
0.0986063
0.0974579
0.0962482
0.094979
0.0936534
0.092276
0.0908524
0.089387
0.0878813
0.0863329
0.0847363
0.0830847
0.0813736
0.0796037
0.0777833
0.0759285
0.0740614
0.0722068
0.0703882
0.0686251
0.0669303
0.0653173
0.0637696
0.0624293
0.0605401
0.062162
0.0416323
541.204
878.527
915.73
936.933
949.285
956.311
960.595
963.614
965.779
967.677
969.308
968.169
968.059
968.072
968.05
968.019
968.492
968.492
965.665
962.928
)
;

boundaryField
{
    frontHeated
    {
        type            calculated;
        value           uniform 0.0562093;
    }
    backOutlet
    {
        type            calculated;
        value           uniform 962.924;
    }
    defaultFaces
    {
        type            empty;
    }
}


// ************************************************************************* //
