/*--------------------------------*- C++ -*----------------------------------*\
  =========                 |
  \\      /  F ield         | OpenFOAM: The Open Source CFD Toolbox
   \\    /   O peration     | Website:  https://openfoam.org
    \\  /    A nd           | Version:  dev
     \\/     M anipulation  |
\*---------------------------------------------------------------------------*/
FoamFile
{
    format      ascii;
    class       volScalarField;
    location    "0.224233";
    object      thermo:rho;
}
// * * * * * * * * * * * * * * * * * * * * * * * * * * * * * * * * * * * * * //

dimensions      [1 -3 0 0 0 0 0];

internalField   nonuniform List<scalar> 
100
(
0.0901458
0.104988
0.110433
0.11279
0.113942
0.114557
0.114904
0.115107
0.115226
0.115292
0.115324
0.115333
0.115326
0.115308
0.115282
0.115251
0.115216
0.11518
0.115143
0.115105
0.115069
0.115034
0.115
0.114969
0.11494
0.114913
0.114888
0.114864
0.11484
0.114817
0.114793
0.114766
0.114735
0.114699
0.114655
0.114603
0.114538
0.11446
0.114365
0.114252
0.114117
0.113958
0.113773
0.113559
0.113314
0.113035
0.11272
0.112367
0.111974
0.111538
0.11106
0.110536
0.109966
0.109348
0.108682
0.107967
0.107203
0.106388
0.105523
0.104608
0.103644
0.102631
0.101571
0.100464
0.0993138
0.0981211
0.096888
0.0956156
0.0943045
0.0929545
0.0915654
0.0901367
0.088669
0.0871639
0.0856248
0.084057
0.0824677
0.0808656
0.0792604
0.0776611
0.0760832
0.0745188
0.0730092
0.0715972
0.0702481
0.0688521
0.0673113
0.0656058
0.063824
0.062782
0.0607922
0.0586083
0.057272
4.17703
869.893
868.051
868.283
868.283
839.277
728.416
)
;

boundaryField
{
    frontHeated
    {
        type            calculated;
        value           uniform 0.0562093;
    }
    backOutlet
    {
        type            calculated;
        value           uniform 728.356;
    }
    defaultFaces
    {
        type            empty;
    }
}


// ************************************************************************* //
