/*--------------------------------*- C++ -*----------------------------------*\
  =========                 |
  \\      /  F ield         | OpenFOAM: The Open Source CFD Toolbox
   \\    /   O peration     | Website:  https://openfoam.org
    \\  /    A nd           | Version:  dev
     \\/     M anipulation  |
\*---------------------------------------------------------------------------*/
FoamFile
{
    format      ascii;
    class       volVectorField;
    location    "0.0474966";
    object      U;
}
// * * * * * * * * * * * * * * * * * * * * * * * * * * * * * * * * * * * * * //

dimensions      [0 1 -1 0 0 0 0];

internalField   nonuniform List<vector> 
100
(
(0.000199988 0 0)
(0.000128796 0 0)
(0.000206917 0 0)
(0.000250862 0 0)
(0.000289746 0 0)
(0.000323461 0 0)
(0.000348097 0 0)
(0.00051656 0 0)
(0.000358886 0 0)
(0.000572232 0 0)
(0.000602034 0 0)
(0.000436766 0 0)
(0.000564837 0 0)
(0.000558945 0 0)
(0.000557077 0 0)
(0.0005586 0 0)
(0.000559777 0 0)
(0.000560309 0 0)
(0.000560447 0 0)
(0.000560477 0 0)
(0.000560499 0 0)
(0.000560508 0 0)
(0.000560511 0 0)
(0.000560512 0 0)
(0.000560512 0 0)
(0.000560512 0 0)
(0.000560512 0 0)
(0.000560512 0 0)
(0.000560512 0 0)
(0.000560512 0 0)
(0.000560512 0 0)
(0.000560512 0 0)
(0.000560512 0 0)
(0.000560512 0 0)
(0.000560512 0 0)
(0.000560512 0 0)
(0.000560512 0 0)
(0.000560512 0 0)
(0.000560512 0 0)
(0.000560512 0 0)
(0.000560512 0 0)
(0.000560512 0 0)
(0.000560512 0 0)
(0.000560512 0 0)
(0.000560512 0 0)
(0.000560512 0 0)
(0.000560512 0 0)
(0.000560512 0 0)
(0.000560512 0 0)
(0.000560512 0 0)
(0.000560512 0 0)
(0.000560512 0 0)
(0.000560512 0 0)
(0.000560512 0 0)
(0.000560512 0 0)
(0.000560512 0 0)
(0.000560512 0 0)
(0.000560512 0 0)
(0.000560512 0 0)
(0.000560512 0 0)
(0.000560512 0 0)
(0.000560512 0 0)
(0.000560512 0 0)
(0.000560512 0 0)
(0.000560512 0 0)
(0.000560512 0 0)
(0.000560512 0 0)
(0.000560512 0 0)
(0.000560512 0 0)
(0.000560512 0 0)
(0.000560512 0 0)
(0.000560512 0 0)
(0.000560512 0 0)
(0.000560512 0 0)
(0.000560512 0 0)
(0.000560512 0 0)
(0.000560512 0 0)
(0.000560512 0 0)
(0.000560512 0 0)
(0.000560512 0 0)
(0.000560512 0 0)
(0.000560512 0 0)
(0.000560512 0 0)
(0.000560512 0 0)
(0.000560512 0 0)
(0.000560512 0 0)
(0.000560512 0 0)
(0.000560512 0 0)
(0.000560511 0 0)
(0.000560508 0 0)
(0.000560498 0 0)
(0.000560468 0 0)
(0.000560386 0 0)
(0.000560172 0 0)
(0.000559683 0 0)
(0.000558706 0 0)
(0.000556988 0 0)
(0.000554368 0 0)
(0.000550766 0 0)
(0.000547374 0 0)
)
;

boundaryField
{
    frontHeated
    {
        type            noSlip;
    }
    backOutlet
    {
        type            pressureInletOutletVelocity;
        value           uniform (0.000547374 0 0);
    }
    defaultFaces
    {
        type            empty;
    }
}


// ************************************************************************* //
