/*--------------------------------*- C++ -*----------------------------------*\
  =========                 |
  \\      /  F ield         | OpenFOAM: The Open Source CFD Toolbox
   \\    /   O peration     | Website:  https://openfoam.org
    \\  /    A nd           | Version:  dev
     \\/     M anipulation  |
\*---------------------------------------------------------------------------*/
FoamFile
{
    format      ascii;
    class       volScalarField;
    location    "0.190232";
    object      rhoSmear;
}
// * * * * * * * * * * * * * * * * * * * * * * * * * * * * * * * * * * * * * //

dimensions      [1 -3 -1 0 0 0 0];

internalField   nonuniform List<scalar> 
100
(
1.85979e-15
2.06644e-15
2.50269e-15
3.21701e-15
4.28878e-15
5.83708e-15
8.03394e-15
1.11235e-14
1.54489e-14
2.1491e-14
2.99208e-14
4.16753e-14
5.80603e-14
8.08965e-14
1.12721e-13
1.5707e-13
2.18872e-13
3.04992e-13
4.25001e-13
5.92232e-13
8.25267e-13
1.15e-12
1.60251e-12
2.23307e-12
3.11175e-12
4.33619e-12
6.04242e-12
8.42003e-12
1.17332e-11
1.63501e-11
2.27836e-11
3.17487e-11
4.42413e-11
6.16497e-11
8.59081e-11
1.19712e-10
1.66817e-10
2.32457e-10
3.23926e-10
4.51386e-10
6.29001e-10
8.76504e-10
1.2214e-09
1.702e-09
2.37171e-09
3.30495e-09
4.60541e-09
6.41758e-09
8.94281e-09
1.24617e-08
1.73652e-08
2.41982e-08
3.37198e-08
4.69881e-08
6.54774e-08
9.12418e-08
1.27144e-07
1.77174e-07
2.46889e-07
3.44037e-07
4.79411e-07
6.68053e-07
9.30923e-07
1.29723e-06
1.80767e-06
2.51897e-06
3.51015e-06
4.89135e-06
6.81602e-06
9.49804e-06
1.32354e-05
1.84433e-05
2.57006e-05
3.58134e-05
4.99055e-05
6.95426e-05
9.69068e-05
0.000135038
0
0
0
0
0
0
0
0
0
0
0
0
-0.000142856
-0.000102693
-7.39405e-05
-5.34036e-05
-3.88005e-05
-2.85086e-05
-2.13843e-05
-1.6636e-05
0
0
)
;

boundaryField
{
    frontHeated
    {
        type            zeroGradient;
    }
    backOutlet
    {
        type            zeroGradient;
    }
    defaultFaces
    {
        type            empty;
    }
}


// ************************************************************************* //
