/*--------------------------------*- C++ -*----------------------------------*\
  =========                 |
  \\      /  F ield         | OpenFOAM: The Open Source CFD Toolbox
   \\    /   O peration     | Website:  https://openfoam.org
    \\  /    A nd           | Version:  dev
     \\/     M anipulation  |
\*---------------------------------------------------------------------------*/
FoamFile
{
    format      ascii;
    class       volVectorField;
    location    "0.190232";
    object      U;
}
// * * * * * * * * * * * * * * * * * * * * * * * * * * * * * * * * * * * * * //

dimensions      [0 1 -1 0 0 0 0];

internalField   nonuniform List<vector> 
100
(
(0.0387163 0 0)
(0.0993295 0 0)
(0.152971 0 0)
(0.205079 0 0)
(0.257265 0 0)
(0.309613 0 0)
(0.36197 0 0)
(0.41428 0 0)
(0.466562 0 0)
(0.518837 0 0)
(0.571118 0 0)
(0.623408 0 0)
(0.675708 0 0)
(0.728026 0 0)
(0.780368 0 0)
(0.832744 0 0)
(0.885161 0 0)
(0.937627 0 0)
(0.990149 0 0)
(1.04273 0 0)
(1.09537 0 0)
(1.14807 0 0)
(1.20081 0 0)
(1.2536 0 0)
(1.30641 0 0)
(1.35921 0 0)
(1.41197 0 0)
(1.46465 0 0)
(1.51718 0 0)
(1.56951 0 0)
(1.62156 0 0)
(1.67323 0 0)
(1.72443 0 0)
(1.77506 0 0)
(1.82505 0 0)
(1.87433 0 0)
(1.92272 0 0)
(1.97003 0 0)
(2.01609 0 0)
(2.06085 0 0)
(2.10426 0 0)
(2.14632 0 0)
(2.18696 0 0)
(2.22609 0 0)
(2.26362 0 0)
(2.29946 0 0)
(2.33354 0 0)
(2.3658 0 0)
(2.3962 0 0)
(2.4247 0 0)
(2.45127 0 0)
(2.4759 0 0)
(2.49855 0 0)
(2.51923 0 0)
(2.53803 0 0)
(2.55502 0 0)
(2.57006 0 0)
(2.58331 0 0)
(2.59569 0 0)
(2.60814 0 0)
(2.62082 0 0)
(2.63327 0 0)
(2.64467 0 0)
(2.65313 0 0)
(2.65456 0 0)
(2.64294 0 0)
(2.6128 0 0)
(2.56276 0 0)
(2.49774 0 0)
(2.42874 0 0)
(2.37052 0 0)
(2.33885 0 0)
(2.34751 0 0)
(2.40632 0 0)
(2.51845 0 0)
(2.71233 0 0)
(2.96793 0 0)
(4.55314 0 0)
(4.56397 0 0)
(4.58702 0 0)
(4.64139 0 0)
(4.66235 0 0)
(4.65971 0 0)
(4.65599 0 0)
(4.65149 0 0)
(4.64852 0 0)
(4.64623 0 0)
(4.64443 0 0)
(4.64262 0 0)
(4.64057 0 0)
(4.63803 0 0)
(4.63487 0 0)
(4.63101 0 0)
(4.62658 0 0)
(4.62102 0 0)
(4.61803 0 0)
(4.59786 0 0)
(4.66887 0 0)
(4.25639 0 0)
(6.75819 0 0)
)
;

boundaryField
{
    frontHeated
    {
        type            noSlip;
    }
    backOutlet
    {
        type            pressureInletOutletVelocity;
        value           uniform (6.75819 0 0);
    }
    defaultFaces
    {
        type            empty;
    }
}


// ************************************************************************* //
