/*--------------------------------*- C++ -*----------------------------------*\
  =========                 |
  \\      /  F ield         | OpenFOAM: The Open Source CFD Toolbox
   \\    /   O peration     | Website:  https://openfoam.org
    \\  /    A nd           | Version:  dev
     \\/     M anipulation  |
\*---------------------------------------------------------------------------*/
FoamFile
{
    format      ascii;
    class       volScalarField;
    location    "0.048503";
    object      rhoSmear;
}
// * * * * * * * * * * * * * * * * * * * * * * * * * * * * * * * * * * * * * //

dimensions      [1 -3 -1 0 0 0 0];

internalField   nonuniform List<scalar> 
100
(
4.80851e-08
5.34279e-08
6.47072e-08
8.31761e-08
1.10887e-07
1.50918e-07
2.07718e-07
2.87598e-07
3.99434e-07
5.5565e-07
7.73606e-07
1.07752e-06
1.50115e-06
2.09159e-06
2.91442e-06
4.06107e-06
5.65895e-06
7.88561e-06
0
0
0
0
0
0
0
0
0
0
-7.88549e-06
-5.65882e-06
-4.0609e-06
-2.9142e-06
-2.0913e-06
-1.50077e-06
-1.07699e-06
-7.72874e-07
-5.54633e-07
-3.98018e-07
-2.85627e-07
-2.04973e-07
-1.47094e-07
-1.05558e-07
-7.5751e-08
-5.43608e-08
-3.90106e-08
-2.7995e-08
-2.00899e-08
-1.4417e-08
-1.0346e-08
-7.42452e-09
-5.32802e-09
-3.82351e-09
-2.74385e-09
-1.96905e-09
-1.41304e-09
-1.01403e-09
-7.27693e-10
-5.2221e-10
-3.74751e-10
-2.6893e-10
-1.92991e-10
-1.38495e-10
-9.93874e-11
-7.13228e-11
-5.1183e-11
-3.67301e-11
-2.63584e-11
-1.89155e-11
-1.35742e-11
-9.74117e-12
-6.9905e-12
-5.01655e-12
-3.6e-12
-2.58345e-12
-1.85395e-12
-1.33044e-12
-9.54753e-13
-6.85154e-13
-4.91684e-13
-3.52844e-13
-2.5321e-13
-1.8171e-13
-1.304e-13
-9.35791e-14
-6.71557e-14
-4.81941e-14
-3.45874e-14
-2.48238e-14
-1.78183e-14
-1.27927e-14
-9.18849e-15
-6.60522e-15
-4.75586e-15
-3.43493e-15
-2.49565e-15
-1.83368e-15
-1.37544e-15
-1.07003e-15
-8.83509e-16
-7.95158e-16
)
;

boundaryField
{
    frontHeated
    {
        type            zeroGradient;
    }
    backOutlet
    {
        type            zeroGradient;
    }
    defaultFaces
    {
        type            empty;
    }
}


// ************************************************************************* //
