/*--------------------------------*- C++ -*----------------------------------*\
  =========                 |
  \\      /  F ield         | OpenFOAM: The Open Source CFD Toolbox
   \\    /   O peration     | Website:  https://openfoam.org
    \\  /    A nd           | Version:  dev
     \\/     M anipulation  |
\*---------------------------------------------------------------------------*/
FoamFile
{
    format      ascii;
    class       volScalarField;
    location    "0";
    object      rhoSmear;
}
// * * * * * * * * * * * * * * * * * * * * * * * * * * * * * * * * * * * * * //

dimensions      [1 -3 -1 0 0 0 0];

internalField   nonuniform List<scalar> 
2500
(
-3.56018e-05
-3.91628e-05
-4.66459e-05
-5.87948e-05
-7.68197e-05
-0.000102521
-0.000138471
-0.000188266
-0.000256881
-0.00035117
-0.000480561
-0.000658018
0
0.000657583
0.00047994
0.000350267
0.000255635
0.000186552
0.000136145
9.9367e-05
7.25078e-05
5.29125e-05
3.86325e-05
2.82107e-05
2.05845e-05
1.50015e-05
1.09272e-05
7.96743e-06
5.82213e-06
4.26278e-06
3.12058e-06
2.27589e-06
1.64672e-06
1.17735e-06
8.2911e-07
5.73778e-07
3.89671e-07
2.59532e-07
1.69505e-07
1.08592e-07
6.82773e-08
4.21629e-08
2.5594e-08
1.5289e-08
9.00324e-09
5.24534e-09
3.05197e-09
1.81949e-09
1.18306e-09
9.30663e-10
-3.56011e-05
-3.91648e-05
-4.66492e-05
-5.87977e-05
-7.68212e-05
-0.000102521
-0.000138467
-0.000188256
-0.000256876
-0.000351192
-0.000480613
-0.00065806
0
0.000657569
0.00047993
0.000350257
0.000255632
0.000186561
0.000136142
9.93542e-05
7.25067e-05
5.29244e-05
3.86424e-05
2.82092e-05
2.05747e-05
1.49922e-05
1.09241e-05
7.97078e-06
5.82862e-06
4.26861e-06
3.12338e-06
2.27512e-06
1.6431e-06
1.17213e-06
8.23462e-07
5.68544e-07
3.85295e-07
2.56145e-07
1.67039e-07
1.06885e-07
6.71466e-08
4.14418e-08
2.51489e-08
1.50216e-08
8.84531e-09
5.1515e-09
2.9932e-09
1.77858e-09
1.15478e-09
9.34763e-10
-3.56043e-05
-3.91682e-05
-4.66507e-05
-5.87967e-05
-7.68205e-05
-0.000102525
-0.000138474
-0.000188253
-0.000256848
-0.000351151
-0.000480583
-0.000658069
0
0.000657567
0.000479922
0.000350267
0.000255633
0.000186548
0.000136136
9.93604e-05
7.25162e-05
5.29284e-05
3.86389e-05
2.82022e-05
2.05692e-05
1.49909e-05
1.09267e-05
7.97512e-06
5.83235e-06
4.27033e-06
3.12282e-06
2.27278e-06
1.63981e-06
1.16867e-06
8.20359e-07
5.66058e-07
3.83475e-07
2.54915e-07
1.66269e-07
1.06442e-07
6.69148e-08
4.13366e-08
2.51131e-08
1.50193e-08
8.85609e-09
5.1649e-09
3.00468e-09
1.78723e-09
1.16204e-09
9.41947e-10
-3.56082e-05
-3.91715e-05
-4.66505e-05
-5.87923e-05
-7.68135e-05
-0.00010252
-0.00013848
-0.000188275
-0.000256872
-0.000351156
-0.000480572
-0.000658044
0
0.000657583
0.000479926
0.000350259
0.000255625
0.000186546
0.00013614
9.93667e-05
7.25194e-05
5.29265e-05
3.86338e-05
2.81974e-05
2.05673e-05
1.49922e-05
1.09299e-05
7.97847e-06
5.83445e-06
4.27059e-06
3.12138e-06
2.27022e-06
1.63679e-06
1.16574e-06
8.17865e-07
5.64132e-07
3.82111e-07
2.54024e-07
1.65734e-07
1.06151e-07
6.67781e-08
4.12885e-08
2.51102e-08
1.50357e-08
8.87758e-09
5.1848e-09
3.02069e-09
1.79942e-09
1.17165e-09
9.49926e-10
-3.56111e-05
-3.9174e-05
-4.66512e-05
-5.8791e-05
-7.68097e-05
-0.000102509
-0.000138462
-0.000188264
-0.000256885
-0.000351163
-0.000480572
-0.000658044
0
0.000657581
0.000479924
0.000350255
0.000255624
0.000186549
0.000136145
9.93693e-05
7.25184e-05
5.29229e-05
3.86298e-05
2.81951e-05
2.05675e-05
1.49943e-05
1.09328e-05
7.98073e-06
5.83535e-06
4.26996e-06
3.11952e-06
2.26765e-06
1.63403e-06
1.16319e-06
8.15747e-07
5.62522e-07
3.8098e-07
2.53288e-07
1.65293e-07
1.05912e-07
6.66658e-08
4.12493e-08
2.51086e-08
1.50502e-08
8.89648e-09
5.20251e-09
3.03523e-09
1.81078e-09
1.18069e-09
9.57708e-10
-3.56121e-05
-3.9173e-05
-4.66487e-05
-5.87903e-05
-7.68164e-05
-0.00010252
-0.000138459
-0.000188243
-0.000256875
-0.000351171
-0.000480579
-0.000658045
0
0.000657576
0.000479922
0.000350255
0.000255627
0.000186552
0.000136146
9.93686e-05
7.25157e-05
5.29196e-05
3.86275e-05
2.81947e-05
2.05688e-05
1.49966e-05
1.09349e-05
7.98197e-06
5.83532e-06
4.26873e-06
3.11744e-06
2.26516e-06
1.63154e-06
1.16097e-06
8.13946e-07
5.61171e-07
3.80037e-07
2.52676e-07
1.64926e-07
1.05711e-07
6.65708e-08
4.12154e-08
2.51064e-08
1.50618e-08
8.91218e-09
5.21751e-09
3.0478e-09
1.8208e-09
1.18882e-09
9.64875e-10
-3.5614e-05
-3.9171e-05
-4.66413e-05
-5.87793e-05
-7.68087e-05
-0.000102524
-0.000138472
-0.000188248
-0.000256865
-0.000351166
-0.000480579
-0.000658045
0
0.000657573
0.000479922
0.000350257
0.000255629
0.000186553
0.000136146
9.93664e-05
7.2513e-05
5.29174e-05
3.86268e-05
2.81954e-05
2.05705e-05
1.49985e-05
1.09362e-05
7.98233e-06
5.8346e-06
4.26712e-06
3.11529e-06
2.26283e-06
1.62932e-06
1.15906e-06
8.12423e-07
5.60043e-07
3.79256e-07
2.5217e-07
1.64622e-07
1.05545e-07
6.64915e-08
4.11865e-08
2.51039e-08
1.50711e-08
8.92509e-09
5.23006e-09
3.05848e-09
1.82945e-09
1.19596e-09
9.71261e-10
-3.56167e-05
-3.9175e-05
-4.66425e-05
-5.87784e-05
-7.6804e-05
-0.000102518
-0.000138473
-0.000188257
-0.000256865
-0.000351159
-0.000480576
-0.000658044
0
0.000657574
0.000479923
0.000350258
0.000255629
0.000186552
0.000136144
9.93642e-05
7.25111e-05
5.29166e-05
3.86272e-05
2.81967e-05
2.05721e-05
1.49998e-05
1.09368e-05
7.98198e-06
5.8334e-06
4.26531e-06
3.11317e-06
2.26069e-06
1.62737e-06
1.15742e-06
8.11146e-07
5.59108e-07
3.78613e-07
2.51756e-07
1.64374e-07
1.05409e-07
6.64261e-08
4.11624e-08
2.51016e-08
1.50786e-08
8.93568e-09
5.24048e-09
3.06746e-09
1.83682e-09
1.20211e-09
9.76822e-10
-3.56138e-05
-3.91737e-05
-4.66409e-05
-5.87801e-05
-7.68068e-05
-0.000102515
-0.000138466
-0.000188258
-0.000256869
-0.000351157
-0.000480574
-0.000658044
0
0.000657575
0.000479923
0.000350258
0.000255628
0.000186551
0.000136142
9.93626e-05
7.25103e-05
5.29168e-05
3.86281e-05
2.8198e-05
2.05733e-05
1.50004e-05
1.09367e-05
7.98109e-06
5.83189e-06
4.26343e-06
3.11116e-06
2.25877e-06
1.62568e-06
1.15604e-06
8.10084e-07
5.5834e-07
3.78089e-07
2.5142e-07
1.64173e-07
1.05299e-07
6.63732e-08
4.11428e-08
2.50996e-08
1.50846e-08
8.94435e-09
5.24908e-09
3.07492e-09
1.84301e-09
1.20734e-09
9.81581e-10
-3.56123e-05
-3.91698e-05
-4.66357e-05
-5.87785e-05
-7.68105e-05
-0.000102518
-0.000138463
-0.000188256
-0.000256871
-0.000351158
-0.000480574
-0.000658044
0
0.000657575
0.000479923
0.000350257
0.000255627
0.000186549
0.000136141
9.93619e-05
7.25104e-05
5.29175e-05
3.86292e-05
2.8199e-05
2.05739e-05
1.50004e-05
1.0936e-05
7.97983e-06
5.83023e-06
4.26157e-06
3.1093e-06
2.25707e-06
1.62424e-06
1.15488e-06
8.0921e-07
5.57714e-07
3.77666e-07
2.5115e-07
1.64012e-07
1.05211e-07
6.63308e-08
4.11271e-08
2.50981e-08
1.50896e-08
8.95142e-09
5.25612e-09
3.08109e-09
1.84817e-09
1.21173e-09
9.85596e-10
-3.56151e-05
-3.91683e-05
-4.66327e-05
-5.8776e-05
-7.68123e-05
-0.000102523
-0.000138464
-0.000188255
-0.000256871
-0.000351159
-0.000480574
-0.000658043
0
0.000657573
0.000479921
0.000350255
0.000255625
0.000186548
0.00013614
9.9362e-05
7.2511e-05
5.29184e-05
3.863e-05
2.81995e-05
2.05739e-05
1.49999e-05
1.09349e-05
7.97836e-06
5.82853e-06
4.25981e-06
3.10764e-06
2.2556e-06
1.62302e-06
1.15393e-06
8.08498e-07
5.5721e-07
3.77327e-07
2.50935e-07
1.63884e-07
1.05141e-07
6.62973e-08
4.11148e-08
2.5097e-08
1.50936e-08
8.95717e-09
5.26186e-09
3.08613e-09
1.85241e-09
1.21536e-09
9.88941e-10
-3.56176e-05
-3.91686e-05
-4.66332e-05
-5.87752e-05
-7.68124e-05
-0.000102526
-0.000138466
-0.000188254
-0.00025687
-0.000351158
-0.000480573
-0.000658042
0
0.000657572
0.00047992
0.000350254
0.000255624
0.000186548
0.00013614
9.93625e-05
7.25117e-05
5.29191e-05
3.86305e-05
2.81996e-05
2.05734e-05
1.49989e-05
1.09336e-05
7.9768e-06
5.82688e-06
4.25821e-06
3.10619e-06
2.25436e-06
1.62201e-06
1.15315e-06
8.07924e-07
5.56808e-07
3.77059e-07
2.50766e-07
1.63783e-07
1.05086e-07
6.62713e-08
4.11054e-08
2.50963e-08
1.5097e-08
8.96183e-09
5.26651e-09
3.09023e-09
1.85587e-09
1.21835e-09
9.91698e-10
-3.56168e-05
-3.91687e-05
-4.66347e-05
-5.87756e-05
-7.68119e-05
-0.000102526
-0.000138466
-0.000188253
-0.000256869
-0.000351157
-0.000480571
-0.00065804
0
0.00065757
0.000479919
0.000350253
0.000255624
0.000186548
0.000136141
9.9363e-05
7.25123e-05
5.29194e-05
3.86304e-05
2.81991e-05
2.05726e-05
1.49977e-05
1.09322e-05
7.97525e-06
5.82535e-06
4.25679e-06
3.10494e-06
2.25332e-06
1.62118e-06
1.15252e-06
8.07466e-07
5.5649e-07
3.76848e-07
2.50634e-07
1.63706e-07
1.05044e-07
6.62514e-08
4.10982e-08
2.5096e-08
1.50997e-08
8.96559e-09
5.27025e-09
3.09352e-09
1.85867e-09
1.22077e-09
9.93946e-10
-3.56138e-05
-3.9168e-05
-4.66358e-05
-5.87762e-05
-7.68112e-05
-0.000102525
-0.000138465
-0.000188252
-0.000256867
-0.000351155
-0.00048057
-0.000658039
0
0.00065757
0.000479918
0.000350253
0.000255624
0.000186548
0.000136141
9.93634e-05
7.25124e-05
5.29192e-05
3.86299e-05
2.81982e-05
2.05714e-05
1.49964e-05
1.09307e-05
7.9738e-06
5.82397e-06
4.25556e-06
3.10389e-06
2.25246e-06
1.62051e-06
1.15202e-06
8.07106e-07
5.56242e-07
3.76685e-07
2.50532e-07
1.63646e-07
1.05012e-07
6.62363e-08
4.10929e-08
2.50959e-08
1.5102e-08
8.96861e-09
5.27323e-09
3.09616e-09
1.86092e-09
1.22272e-09
9.95762e-10
-3.56113e-05
-3.91675e-05
-4.66364e-05
-5.87766e-05
-7.68105e-05
-0.000102524
-0.000138464
-0.000188251
-0.000256866
-0.000351154
-0.000480569
-0.000658038
0
0.000657569
0.000479918
0.000350253
0.000255624
0.000186548
0.000136141
9.93634e-05
7.25121e-05
5.29187e-05
3.86291e-05
2.81972e-05
2.05702e-05
1.4995e-05
1.09294e-05
7.97248e-06
5.82278e-06
4.25452e-06
3.10302e-06
2.25177e-06
1.61998e-06
1.15162e-06
8.06825e-07
5.5605e-07
3.7656e-07
2.50454e-07
1.63601e-07
1.04988e-07
6.6225e-08
4.10891e-08
2.50959e-08
1.51038e-08
8.97102e-09
5.2756e-09
3.09825e-09
1.8627e-09
1.22428e-09
9.97214e-10
-3.56107e-05
-3.91679e-05
-4.66369e-05
-5.87769e-05
-7.68101e-05
-0.000102523
-0.000138463
-0.00018825
-0.000256865
-0.000351153
-0.000480568
-0.000658037
0
0.000657569
0.000479918
0.000350253
0.000255625
0.000186548
0.000136141
9.9363e-05
7.25115e-05
5.29178e-05
3.8628e-05
2.81959e-05
2.05689e-05
1.49937e-05
1.09281e-05
7.97134e-06
5.82177e-06
4.25366e-06
3.10232e-06
2.25122e-06
1.61956e-06
1.15132e-06
8.06609e-07
5.55904e-07
3.76465e-07
2.50395e-07
1.63567e-07
1.0497e-07
6.62166e-08
4.10864e-08
2.50961e-08
1.51053e-08
8.97292e-09
5.27746e-09
3.09989e-09
1.86411e-09
1.22551e-09
9.98365e-10
-3.56116e-05
-3.91689e-05
-4.66375e-05
-5.8777e-05
-7.68099e-05
-0.000102522
-0.000138462
-0.000188249
-0.000256864
-0.000351153
-0.000480568
-0.000658037
0
0.000657569
0.000479918
0.000350253
0.000255624
0.000186548
0.000136141
9.93623e-05
7.25106e-05
5.29168e-05
3.86268e-05
2.81947e-05
2.05676e-05
1.49925e-05
1.0927e-05
7.97036e-06
5.82093e-06
4.25297e-06
3.10177e-06
2.25079e-06
1.61924e-06
1.15108e-06
8.06445e-07
5.55793e-07
3.76394e-07
2.50351e-07
1.63541e-07
1.04957e-07
6.62105e-08
4.10844e-08
2.50964e-08
1.51065e-08
8.97441e-09
5.27891e-09
3.10117e-09
1.8652e-09
1.22647e-09
9.99269e-10
-3.56129e-05
-3.91698e-05
-4.66378e-05
-5.8777e-05
-7.68096e-05
-0.000102522
-0.000138462
-0.000188248
-0.000256864
-0.000351152
-0.000480568
-0.000658037
0
0.000657569
0.000479918
0.000350253
0.000255624
0.000186547
0.00013614
9.93614e-05
7.25096e-05
5.29157e-05
3.86257e-05
2.81936e-05
2.05665e-05
1.49915e-05
1.09261e-05
7.96957e-06
5.82026e-06
4.25242e-06
3.10133e-06
2.25045e-06
1.61899e-06
1.15091e-06
8.06322e-07
5.55711e-07
3.76341e-07
2.50319e-07
1.63523e-07
1.04947e-07
6.62062e-08
4.10831e-08
2.50966e-08
1.51075e-08
8.97558e-09
5.28003e-09
3.10216e-09
1.86605e-09
1.22722e-09
9.99972e-10
-3.56136e-05
-3.917e-05
-4.66376e-05
-5.87766e-05
-7.68091e-05
-0.000102521
-0.000138461
-0.000188248
-0.000256864
-0.000351152
-0.000480567
-0.000658037
0
0.000657569
0.000479918
0.000350252
0.000255623
0.000186547
0.000136139
9.93605e-05
7.25086e-05
5.29146e-05
3.86247e-05
2.81926e-05
2.05656e-05
1.49907e-05
1.09254e-05
7.96894e-06
5.81974e-06
4.252e-06
3.10101e-06
2.25021e-06
1.61881e-06
1.15077e-06
8.06232e-07
5.55651e-07
3.76302e-07
2.50296e-07
1.63509e-07
1.0494e-07
6.62031e-08
4.10823e-08
2.50969e-08
1.51082e-08
8.97647e-09
5.28089e-09
3.10291e-09
1.8667e-09
1.2278e-09
1.00051e-09
-3.56133e-05
-3.91694e-05
-4.66368e-05
-5.87757e-05
-7.68082e-05
-0.00010252
-0.000138461
-0.000188247
-0.000256863
-0.000351151
-0.000480567
-0.000658036
0
0.000657568
0.000479917
0.000350252
0.000255623
0.000186546
0.000136138
9.93596e-05
7.25077e-05
5.29138e-05
3.86238e-05
2.81918e-05
2.05649e-05
1.499e-05
1.09248e-05
7.96848e-06
5.81936e-06
4.2517e-06
3.10077e-06
2.25003e-06
1.61868e-06
1.15068e-06
8.06167e-07
5.55608e-07
3.76275e-07
2.50279e-07
1.635e-07
1.04935e-07
6.6201e-08
4.10817e-08
2.50972e-08
1.51088e-08
8.97716e-09
5.28154e-09
3.10349e-09
1.86719e-09
1.22823e-09
1.00093e-09
-3.56123e-05
-3.91681e-05
-4.66355e-05
-5.87745e-05
-7.68071e-05
-0.000102519
-0.00013846
-0.000188246
-0.000256862
-0.000351151
-0.000480566
-0.000658036
0
0.000657568
0.000479916
0.000350251
0.000255622
0.000186545
0.000136137
9.93589e-05
7.25071e-05
5.29131e-05
3.86232e-05
2.81913e-05
2.05644e-05
1.49896e-05
1.09244e-05
7.96816e-06
5.8191e-06
4.25149e-06
3.10061e-06
2.2499e-06
1.61859e-06
1.15062e-06
8.06123e-07
5.55579e-07
3.76256e-07
2.50268e-07
1.63494e-07
1.04932e-07
6.61997e-08
4.10814e-08
2.50974e-08
1.51093e-08
8.97769e-09
5.28204e-09
3.10392e-09
1.86757e-09
1.22856e-09
1.00124e-09
-3.56109e-05
-3.91666e-05
-4.66341e-05
-5.87732e-05
-7.68059e-05
-0.000102518
-0.000138459
-0.000188246
-0.000256862
-0.00035115
-0.000480566
-0.000658035
0
0.000657567
0.000479916
0.000350251
0.000255621
0.000186545
0.000136137
9.93585e-05
7.25067e-05
5.29128e-05
3.86229e-05
2.8191e-05
2.05642e-05
1.49894e-05
1.09243e-05
7.968e-06
5.81897e-06
4.25138e-06
3.10052e-06
2.24984e-06
1.61854e-06
1.15058e-06
8.06098e-07
5.55562e-07
3.76245e-07
2.50261e-07
1.6349e-07
1.0493e-07
6.6199e-08
4.10814e-08
2.50977e-08
1.51097e-08
8.97811e-09
5.28242e-09
3.10425e-09
1.86785e-09
1.22881e-09
1.00148e-09
-3.56095e-05
-3.91653e-05
-4.66328e-05
-5.8772e-05
-7.68049e-05
-0.000102518
-0.000138458
-0.000188245
-0.000256861
-0.00035115
-0.000480565
-0.000658035
0
0.000657567
0.000479916
0.000350251
0.000255621
0.000186545
0.000136137
9.93585e-05
7.25067e-05
5.29128e-05
3.8623e-05
2.8191e-05
2.05642e-05
1.49894e-05
1.09243e-05
7.96802e-06
5.81898e-06
4.25138e-06
3.10052e-06
2.24983e-06
1.61853e-06
1.15057e-06
8.06091e-07
5.55557e-07
3.76242e-07
2.50259e-07
1.63489e-07
1.0493e-07
6.61991e-08
4.10817e-08
2.50981e-08
1.51101e-08
8.97846e-09
5.28272e-09
3.1045e-09
1.86806e-09
1.22901e-09
1.00167e-09
-3.56085e-05
-3.91643e-05
-4.6632e-05
-5.87713e-05
-7.68043e-05
-0.000102517
-0.000138458
-0.000188245
-0.000256861
-0.00035115
-0.000480565
-0.000658035
0
0.000657567
0.000479916
0.000350251
0.000255622
0.000186545
0.000136137
9.9359e-05
7.25072e-05
5.29133e-05
3.86234e-05
2.81915e-05
2.05646e-05
1.49898e-05
1.09246e-05
7.96825e-06
5.81915e-06
4.25151e-06
3.10061e-06
2.24989e-06
1.61857e-06
1.1506e-06
8.06108e-07
5.55566e-07
3.76248e-07
2.50263e-07
1.63491e-07
1.04931e-07
6.62001e-08
4.10825e-08
2.50987e-08
1.51105e-08
8.97881e-09
5.28299e-09
3.10472e-09
1.86824e-09
1.22916e-09
1.00181e-09
-3.56081e-05
-3.9164e-05
-4.66317e-05
-5.87711e-05
-7.68042e-05
-0.000102517
-0.000138458
-0.000188245
-0.000256861
-0.00035115
-0.000480566
-0.000658036
0
0.000657568
0.000479917
0.000350252
0.000255623
0.000186546
0.000136138
9.936e-05
7.25082e-05
5.29142e-05
3.86244e-05
2.81923e-05
2.05654e-05
1.49905e-05
1.09252e-05
7.96875e-06
5.81955e-06
4.25182e-06
3.10084e-06
2.25005e-06
1.61868e-06
1.15067e-06
8.06156e-07
5.55597e-07
3.76267e-07
2.50274e-07
1.63498e-07
1.04935e-07
6.62026e-08
4.1084e-08
2.50996e-08
1.51112e-08
8.97922e-09
5.28327e-09
3.10492e-09
1.86839e-09
1.22929e-09
1.00193e-09
-3.56084e-05
-3.91643e-05
-4.66321e-05
-5.87716e-05
-7.68048e-05
-0.000102518
-0.000138458
-0.000188246
-0.000256862
-0.000351151
-0.000480567
-0.000658037
0
0.000657569
0.000479918
0.000350253
0.000255624
0.000186548
0.00013614
9.93615e-05
7.25097e-05
5.29157e-05
3.86258e-05
2.81937e-05
2.05667e-05
1.49916e-05
1.09262e-05
7.96961e-06
5.82025e-06
4.25237e-06
3.10125e-06
2.25036e-06
1.6189e-06
1.15082e-06
8.06252e-07
5.55659e-07
3.76306e-07
2.50298e-07
1.63513e-07
1.04944e-07
6.62077e-08
4.1087e-08
2.51014e-08
1.51122e-08
8.97983e-09
5.28365e-09
3.10516e-09
1.86856e-09
1.22942e-09
1.00206e-09
-3.56093e-05
-3.91653e-05
-4.66332e-05
-5.87727e-05
-7.6806e-05
-0.000102519
-0.00013846
-0.000188247
-0.000256863
-0.000351153
-0.000480568
-0.000658038
0
0.000657571
0.00047992
0.000350255
0.000255626
0.000186549
0.000136142
9.93634e-05
7.25116e-05
5.29177e-05
3.86277e-05
2.81956e-05
2.05685e-05
1.49933e-05
1.09277e-05
7.97092e-06
5.82135e-06
4.25325e-06
3.10193e-06
2.25086e-06
1.61926e-06
1.15107e-06
8.06422e-07
5.5577e-07
3.76376e-07
2.50342e-07
1.63539e-07
1.0496e-07
6.62171e-08
4.10924e-08
2.51045e-08
1.5114e-08
8.98084e-09
5.28423e-09
3.10551e-09
1.86878e-09
1.22959e-09
1.00221e-09
-3.5611e-05
-3.91671e-05
-4.66351e-05
-5.87746e-05
-7.68079e-05
-0.000102521
-0.000138462
-0.000188249
-0.000256865
-0.000351154
-0.00048057
-0.00065804
0
0.000657573
0.000479922
0.000350257
0.000255628
0.000186552
0.000136144
9.93657e-05
7.25139e-05
5.292e-05
3.86301e-05
2.81979e-05
2.05708e-05
1.49955e-05
1.09297e-05
7.97276e-06
5.82294e-06
4.25457e-06
3.10298e-06
2.25166e-06
1.61984e-06
1.15149e-06
8.06705e-07
5.55958e-07
3.76498e-07
2.50419e-07
1.63586e-07
1.04988e-07
6.62338e-08
4.11021e-08
2.511e-08
1.51171e-08
8.98261e-09
5.28522e-09
3.10608e-09
1.86914e-09
1.22984e-09
1.00243e-09
-3.56133e-05
-3.91696e-05
-4.66376e-05
-5.87772e-05
-7.68104e-05
-0.000102523
-0.000138464
-0.000188252
-0.000256868
-0.000351157
-0.000480573
-0.000658042
0
0.000657575
0.000479924
0.000350259
0.00025563
0.000186554
0.000136146
9.93679e-05
7.25163e-05
5.29225e-05
3.86326e-05
2.82005e-05
2.05734e-05
1.49981e-05
1.09323e-05
7.97516e-06
5.82509e-06
4.25641e-06
3.10449e-06
2.25285e-06
1.62074e-06
1.15213e-06
8.07157e-07
5.56263e-07
3.76698e-07
2.50547e-07
1.63666e-07
1.05037e-07
6.62627e-08
4.1119e-08
2.51197e-08
1.51226e-08
8.98569e-09
5.28695e-09
3.10706e-09
1.86973e-09
1.23025e-09
1.00279e-09
-3.56163e-05
-3.91728e-05
-4.66408e-05
-5.87804e-05
-7.68136e-05
-0.000102526
-0.000138467
-0.000188254
-0.00025687
-0.000351159
-0.000480575
-0.000658044
0
0.000657577
0.000479926
0.000350261
0.000255632
0.000186556
0.000136148
9.93699e-05
7.25183e-05
5.29246e-05
3.8635e-05
2.8203e-05
2.05761e-05
1.5001e-05
1.09352e-05
7.97802e-06
5.82779e-06
4.25883e-06
3.10655e-06
2.25452e-06
1.62203e-06
1.1531e-06
8.07846e-07
5.56739e-07
3.77016e-07
2.50753e-07
1.63796e-07
1.05117e-07
6.6311e-08
4.11476e-08
2.51363e-08
1.51321e-08
8.99103e-09
5.28995e-09
3.10876e-09
1.87074e-09
1.23094e-09
1.00339e-09
-3.56199e-05
-3.91765e-05
-4.66446e-05
-5.87841e-05
-7.68172e-05
-0.00010253
-0.00013847
-0.000188257
-0.000256873
-0.000351161
-0.000480577
-0.000658046
0
0.000657578
0.000479927
0.000350262
0.000255633
0.000186557
0.000136149
9.93711e-05
7.25197e-05
5.29261e-05
3.86367e-05
2.8205e-05
2.05783e-05
1.50035e-05
1.09381e-05
7.98109e-06
5.83089e-06
4.26178e-06
3.10919e-06
2.25675e-06
1.62383e-06
1.15447e-06
8.08855e-07
5.57451e-07
3.77501e-07
2.51073e-07
1.64002e-07
1.05246e-07
6.63897e-08
4.11946e-08
2.51639e-08
1.5148e-08
9.00008e-09
5.29506e-09
3.11167e-09
1.87248e-09
1.23213e-09
1.00441e-09
-3.56239e-05
-3.91808e-05
-4.66488e-05
-5.87882e-05
-7.68211e-05
-0.000102533
-0.000138473
-0.00018826
-0.000256875
-0.000351163
-0.000480578
-0.000658048
0
0.000657579
0.000479928
0.000350262
0.000255633
0.000186557
0.00013615
9.93714e-05
7.25201e-05
5.29267e-05
3.86374e-05
2.8206e-05
2.05797e-05
1.50053e-05
1.09404e-05
7.98392e-06
5.83405e-06
4.26505e-06
3.11232e-06
2.25955e-06
1.62617e-06
1.15633e-06
8.10264e-07
5.58473e-07
3.78214e-07
2.51554e-07
1.64316e-07
1.05445e-07
6.65136e-08
4.12697e-08
2.52085e-08
1.5174e-08
9.01502e-09
5.30357e-09
3.11655e-09
1.87541e-09
1.23411e-09
1.0061e-09
-3.56282e-05
-3.91853e-05
-4.66533e-05
-5.87925e-05
-7.6825e-05
-0.000102537
-0.000138477
-0.000188262
-0.000256877
-0.000351165
-0.000480579
-0.000658048
0
0.000657579
0.000479927
0.000350262
0.000255633
0.000186557
0.000136149
9.9371e-05
7.25197e-05
5.29264e-05
3.86372e-05
2.8206e-05
2.05799e-05
1.5006e-05
1.09417e-05
7.98595e-06
5.83679e-06
4.26827e-06
3.1157e-06
2.26279e-06
1.62904e-06
1.15872e-06
8.12139e-07
5.59875e-07
3.79219e-07
2.52247e-07
1.64779e-07
1.05745e-07
6.67024e-08
4.13859e-08
2.52784e-08
1.52153e-08
9.03903e-09
5.31739e-09
3.12455e-09
1.88022e-09
1.23737e-09
1.00887e-09
-3.56325e-05
-3.91897e-05
-4.66577e-05
-5.87967e-05
-7.68288e-05
-0.00010254
-0.000138479
-0.000188265
-0.000256879
-0.000351166
-0.00048058
-0.000658048
0
0.000657579
0.000479927
0.000350262
0.000255632
0.000186556
0.000136149
9.93704e-05
7.25191e-05
5.29258e-05
3.86366e-05
2.82053e-05
2.05792e-05
1.50054e-05
1.09416e-05
7.98671e-06
5.83856e-06
4.27093e-06
3.11894e-06
2.26622e-06
1.63232e-06
1.1616e-06
8.14501e-07
5.61707e-07
3.80573e-07
2.53207e-07
1.65434e-07
1.06178e-07
6.69804e-08
4.15598e-08
2.53847e-08
1.52789e-08
9.07649e-09
5.3392e-09
3.13728e-09
1.88794e-09
1.2426e-09
1.01329e-09
-3.56364e-05
-3.91938e-05
-4.66616e-05
-5.88003e-05
-7.68321e-05
-0.000102543
-0.000138482
-0.000188266
-0.00025688
-0.000351167
-0.00048058
-0.000658049
0
0.000657579
0.000479927
0.000350262
0.000255632
0.000186556
0.000136149
9.93704e-05
7.25189e-05
5.29255e-05
3.86363e-05
2.8205e-05
2.05785e-05
1.50043e-05
1.09404e-05
7.98609e-06
5.83898e-06
4.27256e-06
3.12159e-06
2.26949e-06
1.63576e-06
1.16484e-06
8.17311e-07
5.63982e-07
3.82315e-07
2.54478e-07
1.66325e-07
1.0678e-07
6.7375e-08
4.18111e-08
2.55409e-08
1.53738e-08
9.13315e-09
5.37261e-09
3.157e-09
1.89999e-09
1.25079e-09
1.02021e-09
-3.56397e-05
-3.91971e-05
-4.66648e-05
-5.88033e-05
-7.68348e-05
-0.000102545
-0.000138484
-0.000188268
-0.000256881
-0.000351168
-0.000480581
-0.000658049
0
0.00065758
0.000479928
0.000350262
0.000255633
0.000186557
0.00013615
9.93714e-05
7.25198e-05
5.29262e-05
3.8637e-05
2.82057e-05
2.05788e-05
1.50037e-05
1.09391e-05
7.98462e-06
5.83815e-06
4.27293e-06
3.12328e-06
2.27221e-06
1.63906e-06
1.16825e-06
8.2046e-07
5.66663e-07
3.84451e-07
2.5609e-07
1.67487e-07
1.07586e-07
6.79145e-08
4.21616e-08
2.57626e-08
1.55108e-08
9.21615e-09
5.42222e-09
3.18665e-09
1.91827e-09
1.26328e-09
1.03073e-09
-3.56418e-05
-3.91992e-05
-4.66668e-05
-5.88052e-05
-7.68367e-05
-0.000102547
-0.000138485
-0.00018827
-0.000256883
-0.00035117
-0.000480583
-0.000658051
0
0.000657581
0.00047993
0.000350264
0.000255635
0.000186559
0.000136151
9.93733e-05
7.25217e-05
5.29277e-05
3.86385e-05
2.82076e-05
2.05808e-05
1.50049e-05
1.09389e-05
7.9833e-06
5.83669e-06
4.27224e-06
3.12389e-06
2.27414e-06
1.64194e-06
1.17158e-06
8.23788e-07
5.69661e-07
3.8695e-07
2.58048e-07
1.68943e-07
1.08622e-07
6.86252e-08
4.26332e-08
2.60666e-08
1.5702e-08
9.33386e-09
5.49363e-09
3.2299e-09
1.94523e-09
1.28181e-09
1.04635e-09
-3.56425e-05
-3.91997e-05
-4.66674e-05
-5.8806e-05
-7.68377e-05
-0.000102549
-0.000138487
-0.000188272
-0.000256886
-0.000351173
-0.000480587
-0.000658054
0
0.000657584
0.000479932
0.000350266
0.000255637
0.00018656
0.000136153
9.9375e-05
7.25237e-05
5.29291e-05
3.86395e-05
2.82094e-05
2.05836e-05
1.50077e-05
1.09403e-05
7.98312e-06
5.83547e-06
4.27107e-06
3.12365e-06
2.27522e-06
1.64422e-06
1.17464e-06
8.27125e-07
5.72863e-07
3.89751e-07
2.60329e-07
1.70696e-07
1.09907e-07
6.95279e-08
4.32457e-08
2.64696e-08
1.59601e-08
9.49547e-09
5.59322e-09
3.29107e-09
1.98383e-09
1.30854e-09
1.06889e-09
-3.56415e-05
-3.91985e-05
-4.66663e-05
-5.88055e-05
-7.68382e-05
-0.00010255
-0.00013849
-0.000188276
-0.00025689
-0.000351177
-0.000480591
-0.000658058
0
0.000657587
0.000479934
0.000350268
0.000255638
0.000186561
0.000136153
9.93751e-05
7.25248e-05
5.29297e-05
3.8639e-05
2.82093e-05
2.05852e-05
1.50106e-05
1.0943e-05
7.98425e-06
5.83508e-06
4.27001e-06
3.12299e-06
2.27565e-06
1.6459e-06
1.17731e-06
8.30336e-07
5.76153e-07
3.92775e-07
2.62892e-07
1.72734e-07
1.11443e-07
7.0636e-08
4.40149e-08
2.69862e-08
1.62973e-08
9.71041e-09
5.72785e-09
3.37502e-09
2.0375e-09
1.34603e-09
1.10057e-09
-3.56388e-05
-3.91955e-05
-4.66638e-05
-5.8804e-05
-7.68381e-05
-0.000102552
-0.000138493
-0.00018828
-0.000256895
-0.000351182
-0.000480595
-0.000658062
0
0.000657589
0.000479935
0.000350268
0.000255638
0.000186561
0.000136152
9.93733e-05
7.25249e-05
5.29303e-05
3.86378e-05
2.82072e-05
2.05844e-05
1.50118e-05
1.09452e-05
7.98586e-06
5.83533e-06
4.26928e-06
3.1222e-06
2.27563e-06
1.64707e-06
1.17958e-06
8.33341e-07
5.79437e-07
3.95945e-07
2.65687e-07
1.7503e-07
1.13225e-07
7.19543e-08
4.49514e-08
2.76285e-08
1.67247e-08
9.98771e-09
5.90448e-09
3.48688e-09
2.11e-09
1.39718e-09
1.1439e-09
-3.56347e-05
-3.91911e-05
-4.66602e-05
-5.88018e-05
-7.68378e-05
-0.000102554
-0.000138497
-0.000188285
-0.0002569
-0.000351187
-0.000480599
-0.000658065
0
0.00065759
0.000479935
0.000350268
0.000255637
0.000186561
0.000136152
9.93709e-05
7.25244e-05
5.2932e-05
3.86385e-05
2.82057e-05
2.05828e-05
1.50117e-05
1.09463e-05
7.98708e-06
5.83566e-06
4.26866e-06
3.12131e-06
2.2753e-06
1.6478e-06
1.18146e-06
8.361e-07
5.8265e-07
3.99194e-07
2.68661e-07
1.77552e-07
1.15237e-07
7.34801e-08
4.60597e-08
2.84045e-08
1.72511e-08
1.03354e-08
6.1297e-09
3.63179e-09
2.20526e-09
1.46511e-09
1.20162e-09
-3.56298e-05
-3.91861e-05
-4.6656e-05
-5.87993e-05
-7.68373e-05
-0.000102555
-0.000138499
-0.000188288
-0.000256904
-0.00035119
-0.000480602
-0.000658066
0
0.00065759
0.000479936
0.000350268
0.000255638
0.000186562
0.000136155
9.93701e-05
7.25235e-05
5.29338e-05
3.86412e-05
2.8207e-05
2.0583e-05
1.50121e-05
1.09474e-05
7.98818e-06
5.83596e-06
4.26803e-06
3.12029e-06
2.27467e-06
1.64814e-06
1.18297e-06
8.38596e-07
5.85746e-07
4.02468e-07
2.71765e-07
1.80265e-07
1.17458e-07
7.52041e-08
4.73393e-08
2.93183e-08
1.78826e-08
1.07599e-08
6.40931e-09
3.81457e-09
2.32716e-09
1.55298e-09
1.27654e-09
-3.5625e-05
-3.91814e-05
-4.66523e-05
-5.8797e-05
-7.68364e-05
-0.000102555
-0.0001385
-0.00018829
-0.000256905
-0.000351191
-0.000480603
-0.000658068
0
0.000657593
0.000479939
0.000350271
0.00025564
0.000186562
0.000136159
9.93716e-05
7.25221e-05
5.29329e-05
3.86415e-05
2.82078e-05
2.0584e-05
1.50137e-05
1.09494e-05
7.98981e-06
5.83658e-06
4.26755e-06
3.11923e-06
2.27382e-06
1.64817e-06
1.18414e-06
8.40829e-07
5.88701e-07
4.05727e-07
2.74957e-07
1.83131e-07
1.19863e-07
7.71125e-08
4.87846e-08
3.03703e-08
1.86225e-08
1.12659e-08
6.74802e-09
4.03943e-09
2.47926e-09
1.66382e-09
1.37139e-09
-3.56216e-05
-3.91783e-05
-4.665e-05
-5.87953e-05
-7.68351e-05
-0.000102554
-0.000138499
-0.000188288
-0.000256904
-0.000351191
-0.000480604
-0.000658071
0
0.000657598
0.000479944
0.000350275
0.000255642
0.000186561
0.000136158
9.93726e-05
7.25221e-05
5.29311e-05
3.86385e-05
2.82049e-05
2.05824e-05
1.50139e-05
1.0951e-05
7.99151e-06
5.8374e-06
4.26721e-06
3.11817e-06
2.27283e-06
1.64794e-06
1.18503e-06
8.42819e-07
5.91504e-07
4.08942e-07
2.78203e-07
1.8612e-07
1.22426e-07
7.91881e-08
5.03864e-08
3.15569e-08
1.94715e-08
1.18558e-08
7.14916e-09
4.30973e-09
2.66463e-09
1.80033e-09
1.48861e-09
-3.56208e-05
-3.91782e-05
-4.665e-05
-5.87945e-05
-7.68327e-05
-0.00010255
-0.000138494
-0.000188283
-0.000256901
-0.000351192
-0.000480608
-0.000658077
0
0.000657602
0.000479947
0.000350277
0.000255645
0.000186563
0.000136155
9.9371e-05
7.25246e-05
5.29345e-05
3.86396e-05
2.82038e-05
2.05811e-05
1.50138e-05
1.09522e-05
7.99302e-06
5.83821e-06
4.26692e-06
3.11711e-06
2.27173e-06
1.64751e-06
1.18568e-06
8.44593e-07
5.9416e-07
4.12099e-07
2.81476e-07
1.89202e-07
1.25123e-07
8.14119e-08
5.21324e-08
3.28719e-08
2.04273e-08
1.25302e-08
7.61452e-09
4.62777e-09
2.88557e-09
1.96464e-09
1.63012e-09
-3.56234e-05
-3.91818e-05
-4.66525e-05
-5.87943e-05
-7.68289e-05
-0.000102543
-0.000138486
-0.000188278
-0.000256901
-0.000351195
-0.000480614
-0.000658083
0
0.000657603
0.000479948
0.000350279
0.000255646
0.000186574
0.000136162
9.93707e-05
7.25241e-05
5.29356e-05
3.86404e-05
2.82034e-05
2.05803e-05
1.5014e-05
1.09534e-05
7.99449e-06
5.83898e-06
4.2666e-06
3.116e-06
2.27053e-06
1.64692e-06
1.18614e-06
8.46185e-07
5.96682e-07
4.15193e-07
2.84758e-07
1.92354e-07
1.27929e-07
8.37645e-08
5.40087e-08
3.43065e-08
2.14854e-08
1.32875e-08
8.14431e-09
4.99463e-09
3.14344e-09
2.15802e-09
1.79703e-09
-3.56294e-05
-3.91886e-05
-4.66568e-05
-5.87939e-05
-7.68233e-05
-0.000102535
-0.000138479
-0.000188276
-0.000256903
-0.0003512
-0.000480617
-0.000658083
0
0.000657605
0.00047995
0.000350288
0.000255643
0.000186574
0.000136163
9.93716e-05
7.25242e-05
5.29354e-05
3.86396e-05
2.8202e-05
2.05794e-05
1.50142e-05
1.09547e-05
7.99592e-06
5.83968e-06
4.26622e-06
3.11483e-06
2.26924e-06
1.6462e-06
1.18645e-06
8.47632e-07
5.99091e-07
4.18227e-07
2.88038e-07
1.95556e-07
1.30824e-07
8.62267e-08
5.60001e-08
3.585e-08
2.26392e-08
1.41242e-08
8.73717e-09
5.41009e-09
3.43842e-09
2.38066e-09
1.98929e-09
-3.56374e-05
-3.91965e-05
-4.66606e-05
-5.87916e-05
-7.68164e-05
-0.000102528
-0.000138477
-0.000188278
-0.000256907
-0.000351201
-0.000480616
-0.000658078
0
0.000657618
0.000479948
0.000350285
0.000255645
0.000186576
0.000136166
9.93747e-05
7.25271e-05
5.29368e-05
3.86391e-05
2.82005e-05
2.05784e-05
1.50145e-05
1.09559e-05
7.99729e-06
5.84028e-06
4.26574e-06
3.11358e-06
2.26787e-06
1.6454e-06
1.18666e-06
8.48971e-07
6.01412e-07
4.21208e-07
2.91311e-07
1.98794e-07
1.33788e-07
8.878e-08
5.80909e-08
3.74906e-08
2.38806e-08
1.50353e-08
9.39029e-09
5.87258e-09
3.76941e-09
2.63129e-09
2.20522e-09
-3.56446e-05
-3.92013e-05
-4.66604e-05
-5.87866e-05
-7.68111e-05
-0.000102527
-0.000138481
-0.000188282
-0.000256902
-0.00035119
-0.000480619
-0.000658091
0
0.000657609
0.000479955
0.000350286
0.000255647
0.000186576
0.000136165
9.93759e-05
7.25293e-05
5.2938e-05
3.86386e-05
2.81992e-05
2.05776e-05
1.50149e-05
1.09572e-05
7.99854e-06
5.8407e-06
4.2651e-06
3.11221e-06
2.26642e-06
1.64453e-06
1.1868e-06
8.50242e-07
6.03671e-07
4.24149e-07
2.94576e-07
2.02057e-07
1.36807e-07
9.14073e-08
6.02655e-08
3.92157e-08
2.52004e-08
1.60146e-08
1.00996e-08
6.37927e-09
4.13389e-09
2.90677e-09
2.44056e-09
-3.56478e-05
-3.91971e-05
-4.66528e-05
-5.87823e-05
-7.68172e-05
-0.000102538