/*--------------------------------*- C++ -*----------------------------------*\
  =========                 |
  \\      /  F ield         | OpenFOAM: The Open Source CFD Toolbox
   \\    /   O peration     | Website:  https://openfoam.org
    \\  /    A nd           | Version:  dev
     \\/     M anipulation  |
\*---------------------------------------------------------------------------*/
FoamFile
{
    format      ascii;
    class       volScalarField;
    location    "0.160612";
    object      T;
}
// * * * * * * * * * * * * * * * * * * * * * * * * * * * * * * * * * * * * * //

dimensions      [0 0 0 1 0 0 0];

internalField   nonuniform List<scalar> 
100
(
236.892
217.44
212.535
210.741
209.952
209.575
209.398
209.33
209.327
209.365
209.428
209.507
209.593
209.684
209.773
209.858
209.936
210.006
210.068
210.121
210.167
210.209
210.252
210.301
210.362
210.446
210.562
210.721
210.935
211.219
211.585
212.049
212.623
213.324
214.164
215.158
216.32
217.664
219.205
220.956
222.933
225.15
227.624
230.37
233.407
236.753
240.426
244.448
248.836
253.612
258.792
264.394
270.395
276.923
283.577
290.334
297.781
306.688
317.494
330.1
343.349
358.554
360.034
385.121
385.124
385.126
385.128
385.13
385.132
385.133
385.135
385.137
385.139
385.14
385.142
385.143
385.144
385.146
385.147
385.148
385.148
385.149
385.15
385.15
385.151
385.151
385.152
385.152
385.152
385.152
385.152
385.153
385.153
385.153
385.153
385.153
385.153
385.153
385.153
385.151
)
;

boundaryField
{
    frontHeated
    {
        type            fixedValue;
        value           uniform 385.15;
    }
    backOutlet
    {
        type            fixedValue;
        value           uniform 385.15;
    }
    defaultFaces
    {
        type            empty;
    }
}


// ************************************************************************* //
