/*--------------------------------*- C++ -*----------------------------------*\
  =========                 |
  \\      /  F ield         | OpenFOAM: The Open Source CFD Toolbox
   \\    /   O peration     | Website:  https://openfoam.org
    \\  /    A nd           | Version:  dev
     \\/     M anipulation  |
\*---------------------------------------------------------------------------*/
FoamFile
{
    format      ascii;
    class       volVectorField;
    location    "0.202188";
    object      U;
}
// * * * * * * * * * * * * * * * * * * * * * * * * * * * * * * * * * * * * * //

dimensions      [0 1 -1 0 0 0 0];

internalField   nonuniform List<vector> 
100
(
(0.0360559 0 0)
(0.0934174 0 0)
(0.143696 0 0)
(0.191992 0 0)
(0.240173 0 0)
(0.288533 0 0)
(0.33697 0 0)
(0.385401 0 0)
(0.433811 0 0)
(0.48221 0 0)
(0.53061 0 0)
(0.579015 0 0)
(0.62743 0 0)
(0.675859 0 0)
(0.724307 0 0)
(0.772783 0 0)
(0.821295 0 0)
(0.869852 0 0)
(0.918461 0 0)
(0.967129 0 0)
(1.01586 0 0)
(1.06465 0 0)
(1.1135 0 0)
(1.16241 0 0)
(1.21136 0 0)
(1.26034 0 0)
(1.30931 0 0)
(1.35825 0 0)
(1.40711 0 0)
(1.45585 0 0)
(1.50439 0 0)
(1.55266 0 0)
(1.60059 0 0)
(1.64806 0 0)
(1.69499 0 0)
(1.74128 0 0)
(1.78684 0 0)
(1.83155 0 0)
(1.87527 0 0)
(1.91783 0 0)
(1.95909 0 0)
(1.99896 0 0)
(2.03738 0 0)
(2.0743 0 0)
(2.10967 0 0)
(2.14341 0 0)
(2.17544 0 0)
(2.20569 0 0)
(2.23408 0 0)
(2.26055 0 0)
(2.28506 0 0)
(2.30757 0 0)
(2.32806 0 0)
(2.34651 0 0)
(2.36289 0 0)
(2.37724 0 0)
(2.38959 0 0)
(2.39998 0 0)
(2.40841 0 0)
(2.41503 0 0)
(2.42029 0 0)
(2.42475 0 0)
(2.4288 0 0)
(2.43247 0 0)
(2.43548 0 0)
(2.43698 0 0)
(2.43521 0 0)
(2.42722 0 0)
(2.40937 0 0)
(2.37867 0 0)
(2.3343 0 0)
(2.27878 0 0)
(2.21825 0 0)
(2.16173 0 0)
(2.11994 0 0)
(2.10315 0 0)
(2.11987 0 0)
(2.17654 0 0)
(2.27419 0 0)
(2.40303 0 0)
(2.52922 0 0)
(2.63025 0 0)
(2.61987 0 0)
(4.57974 0 0)
(4.60114 0 0)
(4.62609 0 0)
(4.64495 0 0)
(4.65413 0 0)
(4.65552 0 0)
(4.65297 0 0)
(4.64979 0 0)
(4.64699 0 0)
(4.64467 0 0)
(4.64271 0 0)
(4.63959 0 0)
(4.64108 0 0)
(4.61696 0 0)
(4.71549 0 0)
(4.21196 0 0)
(6.77603 0 0)
)
;

boundaryField
{
    frontHeated
    {
        type            noSlip;
    }
    backOutlet
    {
        type            pressureInletOutletVelocity;
        value           uniform (6.77603 0 0);
    }
    defaultFaces
    {
        type            empty;
    }
}


// ************************************************************************* //
