/*--------------------------------*- C++ -*----------------------------------*\
  =========                 |
  \\      /  F ield         | OpenFOAM: The Open Source CFD Toolbox
   \\    /   O peration     | Website:  https://openfoam.org
    \\  /    A nd           | Version:  dev
     \\/     M anipulation  |
\*---------------------------------------------------------------------------*/
FoamFile
{
    format      ascii;
    class       volScalarField;
    location    "0.219202";
    object      epsilon;
}
// * * * * * * * * * * * * * * * * * * * * * * * * * * * * * * * * * * * * * //

dimensions      [0 2 -3 0 0 0 0];

internalField   nonuniform List<scalar> 
100
(
0.018004
0.0200088
0.0233679
0.0261843
0.0287329
0.0311427
0.0334521
0.0356715
0.0378013
0.0398377
0.0417745
0.0436053
0.0453245
0.0469273
0.0484102
0.0497705
0.0510063
0.0521162
0.0530995
0.0539559
0.0546856
0.0552893
0.0557681
0.0561236
0.0563576
0.0564724
0.0564708
0.0563556
0.0561302
0.0557981
0.0553633
0.0548301
0.0542031
0.0534874
0.0526882
0.0518117
0.0508639
0.0498507
0.0487778
0.0476509
0.0464758
0.045259
0.0440076
0.0427286
0.0414286
0.0401134
0.0387882
0.0374574
0.0361253
0.0347957
0.0334726
0.0321597
0.0308607
0.029579
0.0283179
0.0270801
0.0258683
0.0246847
0.0235311
0.0224088
0.0213186
0.0202609
0.019236
0.0182441
0.0172855
0.0163612
0.015473
0.0146237
0.0138176
0.0130608
0.0123616
0.0117305
0.01118
0.0107246
0.0103809
0.0101694
0.0101167
0.0102599
0.0106516
0.0113648
0.0124994
0.0141862
0.0166178
0.0200872
0.0243183
0.0334439
0.051162
0.0804608
0.132239
0.478831
87.1401
1.45566
0.930267
0.541423
0.367285
0.283935
0.238633
0.212892
0.300293
0.670958
)
;

boundaryField
{
    frontHeated
    {
        type            epsilonWallFunction;
        value           uniform 0.018004;
    }
    backOutlet
    {
        type            inletOutlet;
        inletValue      uniform 0.1;
        value           uniform 0.670958;
    }
    defaultFaces
    {
        type            empty;
    }
}


// ************************************************************************* //
