/*--------------------------------*- C++ -*----------------------------------*\
  =========                 |
  \\      /  F ield         | OpenFOAM: The Open Source CFD Toolbox
   \\    /   O peration     | Website:  https://openfoam.org
    \\  /    A nd           | Version:  dev
     \\/     M anipulation  |
\*---------------------------------------------------------------------------*/
FoamFile
{
    format      ascii;
    class       volScalarField;
    location    "0.219202";
    object      T;
}
// * * * * * * * * * * * * * * * * * * * * * * * * * * * * * * * * * * * * * //

dimensions      [0 0 0 1 0 0 0];

internalField   nonuniform List<scalar> 
100
(
239.622
206.68
196.93
193.032
191.194
190.233
189.697
189.388
189.212
189.117
189.074
189.067
189.085
189.12
189.167
189.221
189.281
189.343
189.406
189.469
189.53
189.588
189.642
189.693
189.741
189.785
189.826
189.865
189.904
189.944
189.987
190.036
190.093
190.162
190.246
190.349
190.475
190.628
190.813
191.036
191.299
191.61
191.972
192.39
192.87
193.417
194.035
194.731
195.508
196.372
197.328
198.381
199.536
200.798
202.173
203.666
205.283
207.028
208.908
210.928
213.094
215.41
217.882
220.512
223.306
226.27
229.41
232.738
236.267
240.013
243.994
248.227
252.724
257.494
262.536
267.844
273.402
279.189
285.174
291.327
297.609
303.953
310.47
316.379
322.065
329.135
338.614
350.242
362.077
373.347
358.86
385.122
385.124
385.125
385.127
385.129
385.131
385.132
385.134
384.99
)
;

boundaryField
{
    frontHeated
    {
        type            fixedValue;
        value           uniform 385.15;
    }
    backOutlet
    {
        type            fixedValue;
        value           uniform 385.15;
    }
    defaultFaces
    {
        type            empty;
    }
}


// ************************************************************************* //
