/*--------------------------------*- C++ -*----------------------------------*\
  =========                 |
  \\      /  F ield         | OpenFOAM: The Open Source CFD Toolbox
   \\    /   O peration     | Website:  https://openfoam.org
    \\  /    A nd           | Version:  dev
     \\/     M anipulation  |
\*---------------------------------------------------------------------------*/
FoamFile
{
    format      ascii;
    class       volVectorField;
    location    "0.219202";
    object      U;
}
// * * * * * * * * * * * * * * * * * * * * * * * * * * * * * * * * * * * * * //

dimensions      [0 1 -1 0 0 0 0];

internalField   nonuniform List<vector> 
100
(
(0.0326405 0 0)
(0.0858245 0 0)
(0.131943 0 0)
(0.175575 0 0)
(0.218799 0 0)
(0.262164 0 0)
(0.305671 0 0)
(0.349234 0 0)
(0.392805 0 0)
(0.436371 0 0)
(0.479936 0 0)
(0.523505 0 0)
(0.567079 0 0)
(0.610664 0 0)
(0.654263 0 0)
(0.697881 0 0)
(0.741527 0 0)
(0.785209 0 0)
(0.828934 0 0)
(0.87271 0 0)
(0.916542 0 0)
(0.960437 0 0)
(1.00439 0 0)
(1.04841 0 0)
(1.09249 0 0)
(1.13662 0 0)
(1.18079 0 0)
(1.22497 0 0)
(1.26915 0 0)
(1.31328 0 0)
(1.35732 0 0)
(1.40123 0 0)
(1.44494 0 0)
(1.48838 0 0)
(1.53148 0 0)
(1.57413 0 0)
(1.61626 0 0)
(1.65775 0 0)
(1.69853 0 0)
(1.73848 0 0)
(1.77747 0 0)
(1.81538 0 0)
(1.85207 0 0)
(1.88741 0 0)
(1.92132 0 0)
(1.95373 0 0)
(1.98456 0 0)
(2.01376 0 0)
(2.04126 0 0)
(2.067 0 0)
(2.09092 0 0)
(2.11294 0 0)
(2.13303 0 0)
(2.15114 0 0)
(2.16724 0 0)
(2.1813 0 0)
(2.19331 0 0)
(2.20326 0 0)
(2.21118 0 0)
(2.21708 0 0)
(2.22102 0 0)
(2.22302 0 0)
(2.22321 0 0)
(2.22179 0 0)
(2.21904 0 0)
(2.21526 0 0)
(2.21067 0 0)
(2.20533 0 0)
(2.19908 0 0)
(2.19143 0 0)
(2.18139 0 0)
(2.16749 0 0)
(2.14786 0 0)
(2.12079 0 0)
(2.08524 0 0)
(2.04153 0 0)
(1.99169 0 0)
(1.93958 0 0)
(1.8906 0 0)
(1.85091 0 0)
(1.82819 0 0)
(1.82149 0 0)
(1.85379 0 0)
(1.9232 0 0)
(1.98211 0 0)
(2.0278 0 0)
(2.1005 0 0)
(2.28938 0 0)
(2.64769 0 0)
(3.01912 0 0)
(3.08985 0 0)
(4.56461 0 0)
(4.6007 0 0)
(4.6363 0 0)
(4.65286 0 0)
(4.66461 0 0)
(4.6299 0 0)
(4.76788 0 0)
(4.14483 0 0)
(6.82265 0 0)
)
;

boundaryField
{
    frontHeated
    {
        type            noSlip;
    }
    backOutlet
    {
        type            pressureInletOutletVelocity;
        value           uniform (6.82265 0 0);
    }
    defaultFaces
    {
        type            empty;
    }
}


// ************************************************************************* //
