/*--------------------------------*- C++ -*----------------------------------*\
  =========                 |
  \\      /  F ield         | OpenFOAM: The Open Source CFD Toolbox
   \\    /   O peration     | Website:  https://openfoam.org
    \\  /    A nd           | Version:  dev
     \\/     M anipulation  |
\*---------------------------------------------------------------------------*/
FoamFile
{
    format      ascii;
    class       volScalarField;
    location    "0.0379865";
    object      p;
}
// * * * * * * * * * * * * * * * * * * * * * * * * * * * * * * * * * * * * * //

dimensions      [1 -1 -2 0 0 0 0];

internalField   nonuniform List<scalar> 
100
(
54056
54056
54056
54056
54055.9
54055.9
54055.8
54055.7
54055.5
54055.4
54055.2
54055.1
54054.9
54054.7
54054.4
54011.7
53500.4
52945
52427.2
51910.8
51385.9
50856.8
50321.3
49778.9
49228.8
48671
48105.9
47534.7
46958.9
46379.8
45798.6
45215.9
44632.4
44048.3
43463.9
42879.4
42294.7
41709.9
41125.1
40540.3
39955.5
39370.7
38785.8
38201
37616.2
37031.3
36446.5
35861.6
35276.8
34691.9
34107.1
33522.3
32937.4
32352.6
31767.7
31182.9
30598
30013.2
29428.4
28843.5
28258.7
27673.8
27089
26504.1
25919.3
25334.5
24749.6
24164.8
23579.9
22995.1
22410.2
21825.4
21240.6
20655.7
20070.9
19486
18901.2
18316.3
17731.5
17146.6
16561.8
15977
15392.1
14807.2
14222.2
13637.1
13051.5
12465.1
11876.8
11284.9
10688.4
10019.7
10000
10000
10000
10000
10000
10000
10000
10000
)
;

boundaryField
{
    frontHeated
    {
        type            calculated;
        value           uniform 54056;
    }
    backOutlet
    {
        type            calculated;
        value           uniform 10000;
    }
    defaultFaces
    {
        type            empty;
    }
}


// ************************************************************************* //
