/*--------------------------------*- C++ -*----------------------------------*\
  =========                 |
  \\      /  F ield         | OpenFOAM: The Open Source CFD Toolbox
   \\    /   O peration     | Website:  https://openfoam.org
    \\  /    A nd           | Version:  dev
     \\/     M anipulation  |
\*---------------------------------------------------------------------------*/
FoamFile
{
    format      ascii;
    class       volScalarField;
    location    "0.0379865";
    object      rhoSmear;
}
// * * * * * * * * * * * * * * * * * * * * * * * * * * * * * * * * * * * * * //

dimensions      [1 -3 -1 0 0 0 0];

internalField   nonuniform List<scalar> 
100
(
1.3979e-07
1.55323e-07
1.88113e-07
2.41805e-07
3.22363e-07
4.38741e-07
6.03867e-07
8.36089e-07
1.16121e-06
1.61535e-06
2.24898e-06
3.1325e-06
4.36407e-06
6.08054e-06
8.47262e-06
0
0
0
0
0
0
0
0
0
-8.47165e-06
-6.07946e-06
-4.36277e-06
-3.13083e-06
-2.24676e-06
-1.61233e-06
-1.15705e-06
-8.30325e-07
-5.95861e-07
-4.27605e-07
-3.0686e-07
-2.2021e-07
-1.58028e-07
-1.13405e-07
-8.1382e-08
-5.84017e-08
-4.19105e-08
-3.0076e-08
-2.15832e-08
-1.54887e-08
-1.1115e-08
-7.97642e-09
-5.72407e-09
-4.10773e-09
-2.94781e-09
-2.11542e-09
-1.51808e-09
-1.08941e-09
-7.81786e-10
-5.61029e-10
-4.02608e-10
-2.88921e-10
-2.07337e-10
-1.4879e-10
-1.06775e-10
-7.66246e-11
-5.49877e-11
-3.94605e-11
-2.83178e-11
-2.03215e-11
-1.45832e-11
-1.04653e-11
-7.51014e-12
-5.38946e-12
-3.86761e-12
-2.77549e-12
-1.99176e-12
-1.42933e-12
-1.02572e-12
-7.36085e-13
-5.28233e-13
-3.79073e-13
-2.72032e-13
-1.95217e-13
-1.40092e-13
-1.00534e-13
-7.21455e-14
-5.17735e-14
-3.71541e-14
-2.66629e-14
-1.91342e-14
-1.37316e-14
-9.85477e-15
-7.07288e-15
-5.07686e-15
-3.64494e-15
-2.61802e-15
-1.88198e-15
-1.35506e-15
-9.78692e-16
-7.1107e-16
-5.22457e-16
-3.91895e-16
-3.04876e-16
-2.51732e-16
-2.26559e-16
)
;

boundaryField
{
    frontHeated
    {
        type            zeroGradient;
    }
    backOutlet
    {
        type            zeroGradient;
    }
    defaultFaces
    {
        type            empty;
    }
}


// ************************************************************************* //
