/*--------------------------------*- C++ -*----------------------------------*\
  =========                 |
  \\      /  F ield         | OpenFOAM: The Open Source CFD Toolbox
   \\    /   O peration     | Website:  https://openfoam.org
    \\  /    A nd           | Version:  dev
     \\/     M anipulation  |
\*---------------------------------------------------------------------------*/
FoamFile
{
    format      ascii;
    class       volScalarField;
    location    "0.0379865";
    object      thermo:rho;
}
// * * * * * * * * * * * * * * * * * * * * * * * * * * * * * * * * * * * * * //

dimensions      [1 -3 0 0 0 0 0];

internalField   nonuniform List<scalar> 
100
(
0.356259
0.356962
0.357094
0.357115
0.3571
0.357071
0.357046
0.357041
0.357128
0.356978
0.356152
0.354072
0.343265
0.326706
0.302206
69.5473
848.958
907.137
934.937
950.397
958.978
963.729
966.353
967.799
968.594
969.03
969.268
969.398
969.469
969.507
969.528
969.539
969.546
969.549
969.551
969.552
969.552
969.552
969.552
969.553
969.553
969.553
969.553
969.553
969.553
969.553
969.553
969.553
969.553
969.553
969.553
969.553
969.553
969.553
969.553
969.553
969.553
969.553
969.553
969.553
969.553
969.553
969.553
969.553
969.553
969.553
969.553
969.553
969.553
969.553
969.553
969.553
969.553
969.553
969.553
969.553
969.553
969.553
969.553
969.553
969.553
969.553
969.553
969.553
969.553
969.553
969.553
969.553
969.553
969.553
969.553
969.553
969.553
969.553
969.553
969.553
969.553
969.553
969.553
969.553
)
;

boundaryField
{
    frontHeated
    {
        type            calculated;
        value           uniform 0.303845;
    }
    backOutlet
    {
        type            calculated;
        value           uniform 969.553;
    }
    defaultFaces
    {
        type            empty;
    }
}


// ************************************************************************* //
