/*--------------------------------*- C++ -*----------------------------------*\
  =========                 |
  \\      /  F ield         | OpenFOAM: The Open Source CFD Toolbox
   \\    /   O peration     | Website:  https://openfoam.org
    \\  /    A nd           | Version:  dev
     \\/     M anipulation  |
\*---------------------------------------------------------------------------*/
FoamFile
{
    format      ascii;
    class       volScalarField;
    location    "0.0606906";
    object      p;
}
// * * * * * * * * * * * * * * * * * * * * * * * * * * * * * * * * * * * * * //

dimensions      [1 -1 -2 0 0 0 0];

internalField   nonuniform List<scalar> 
100
(
34033.7
34033.7
34033.7
34033.7
34033.7
34033.7
34033.6
34033.6
34033.6
34033.5
34033.4
34033.4
34033.3
34033.2
34033.2
34033.1
34033
34032.8
34032.7
34032.5
34032.3
34032.2
34059.3
33630.5
33249.5
32919.3
32586.9
32248.4
31911.4
31574.4
31236.5
30897.5
30557.2
30215.3
29871.2
29524.9
29176.1
28825
28471.6
28116.3
27759.3
27401.1
27041.8
26681.8
26321.3
25960.4
25599.2
25237.9
24876.4
24514.9
24153.3
23791.6
23430
23068.3
22706.6
22344.9
21983.2
21621.5
21259.8
20898.1
20536.4
20174.7
19813
19451.3
19089.6
18727.9
18366.2
18004.5
17642.8
17281.1
16919.4
16557.7
16196
15834.2
15472.5
15110.8
14749.1
14387.4
14025.7
13664
13302.3
12940.6
12578.9
12217.2
11855.5
11493.8
11132.1
10769.1
10407.5
10029.1
10000
10000
10000
10000
10000
10000
10000
10000
10000
10000
)
;

boundaryField
{
    frontHeated
    {
        type            calculated;
        value           uniform 34033.7;
    }
    backOutlet
    {
        type            calculated;
        value           uniform 10000;
    }
    defaultFaces
    {
        type            empty;
    }
}


// ************************************************************************* //
