/*--------------------------------*- C++ -*----------------------------------*\
  =========                 |
  \\      /  F ield         | OpenFOAM: The Open Source CFD Toolbox
   \\    /   O peration     | Website:  https://openfoam.org
    \\  /    A nd           | Version:  dev
     \\/     M anipulation  |
\*---------------------------------------------------------------------------*/
FoamFile
{
    format      ascii;
    class       volScalarField;
    location    "0.200242";
    object      rhoSmear;
}
// * * * * * * * * * * * * * * * * * * * * * * * * * * * * * * * * * * * * * //

dimensions      [1 -3 -1 0 0 0 0];

internalField   nonuniform List<scalar> 
100
(
4.56868e-16
5.07632e-16
6.14798e-16
7.90276e-16
1.05356e-15
1.43391e-15
1.97358e-15
2.73254e-15
3.79511e-15
5.27937e-15
7.35022e-15
1.02378e-14
1.42628e-14
1.98727e-14
2.76906e-14
3.85852e-14
5.37671e-14
7.49231e-14
1.04404e-13
1.45485e-13
2.02731e-13
2.82503e-13
3.93664e-13
5.48566e-13
7.64419e-13
1.06521e-12
1.48435e-12
2.06843e-12
2.88233e-12
4.01648e-12
5.59692e-12
7.79923e-12
1.08681e-11
1.51446e-11
2.11038e-11
2.94078e-11
4.09794e-11
5.71043e-11
7.95741e-11
1.10885e-10
1.54517e-10
2.15318e-10
3.00043e-10
4.18106e-10
5.82625e-10
8.1188e-10
1.13134e-09
1.57651e-09
2.19685e-09
3.06128e-09
4.26585e-09
5.94441e-09
8.28346e-09
1.15429e-08
1.60849e-08
2.2414e-08
3.12337e-08
4.35237e-08
6.06497e-08
8.45146e-08
1.1777e-07
1.64111e-07
2.28686e-07
3.18671e-07
4.44065e-07
6.18798e-07
8.62287e-07
1.20159e-06
1.67439e-06
2.33325e-06
3.25135e-06
4.53071e-06
6.31348e-06
8.79775e-06
1.22596e-05
1.70835e-05
2.38057e-05
3.31729e-05
4.6226e-05
6.44153e-05
8.97619e-05
0.000125082
0.0001743
0
0
0
0
0
0
0
0
0
0
-0.000617263
0
0
0
0
0
0
)
;

boundaryField
{
    frontHeated
    {
        type            zeroGradient;
    }
    backOutlet
    {
        type            zeroGradient;
    }
    defaultFaces
    {
        type            empty;
    }
}


// ************************************************************************* //
