/*--------------------------------*- C++ -*----------------------------------*\
  =========                 |
  \\      /  F ield         | OpenFOAM: The Open Source CFD Toolbox
   \\    /   O peration     | Website:  https://openfoam.org
    \\  /    A nd           | Version:  dev
     \\/     M anipulation  |
\*---------------------------------------------------------------------------*/
FoamFile
{
    format      ascii;
    class       volScalarField;
    location    "0.108222";
    object      p;
}
// * * * * * * * * * * * * * * * * * * * * * * * * * * * * * * * * * * * * * //

dimensions      [1 -1 -2 0 0 0 0];

internalField   nonuniform List<scalar> 
100
(
15930.2
15930.2
15930.2
15930.2
15930.2
15930.2
15930.2
15930.2
15930.2
15930.2
15930.2
15930.1
15930.1
15930.1
15930.1
15930.1
15930.1
15930.1
15930.1
15930.1
15930.1
15930.1
15930
15930
15930
15930
15930
15929.9
15929.9
15929.9
15929.8
15929.8
15929.8
15929.7
15929.7
15929.6
15929.5
15929.5
15929.4
15929.1
15929.4
15933.9
15592.9
15395.6
15285.1
15167.6
15041.6
14919.8
14799.1
14677.8
14556.5
14435
14313.4
14191.6
14069.6
13947.3
13824.7
13701.7
13578.5
13454.8
13330.8
13206.4
13081.6
12956.5
12831
12705.2
12579.1
12452.8
12326.2
12199.5
12072.6
11945.6
11818.5
11691.3
11564.1
11436.8
11309.5
11182.2
11054.8
10927.4
10800
10672.6
10545.2
10417.8
10290.3
10163.3
10035.6
10000
10000
10000
10000
10000
10000
10000
10000
10000
10000
10000
10000
10000
)
;

boundaryField
{
    frontHeated
    {
        type            calculated;
        value           uniform 15930.2;
    }
    backOutlet
    {
        type            calculated;
        value           uniform 10000;
    }
    defaultFaces
    {
        type            empty;
    }
}


// ************************************************************************* //
