/*--------------------------------*- C++ -*----------------------------------*\
  =========                 |
  \\      /  F ield         | OpenFOAM: The Open Source CFD Toolbox
   \\    /   O peration     | Website:  https://openfoam.org
    \\  /    A nd           | Version:  dev
     \\/     M anipulation  |
\*---------------------------------------------------------------------------*/
FoamFile
{
    format      ascii;
    class       volScalarField;
    location    "0.194278";
    object      p_rgh;
}
// * * * * * * * * * * * * * * * * * * * * * * * * * * * * * * * * * * * * * //

dimensions      [1 -1 -2 0 0 0 0];

internalField   nonuniform List<scalar> 
100
(
10000.4
10000.5
10000.5
10000.5
10000.5
10000.5
10000.5
10000.5
10000.5
10000.5
10000.5
10000.5
10000.5
10000.5
10000.5
10000.5
10000.5
10000.5
10000.5
10000.5
10000.5
10000.5
10000.5
10000.5
10000.5
10000.5
10000.5
10000.5
10000.5
10000.5
10000.5
10000.5
10000.5
10000.5
10000.5
10000.5
10000.5
10000.5
10000.5
10000.5
10000.5
10000.5
10000.5
10000.5
10000.5
10000.5
10000.5
10000.5
10000.5
10000.5
10000.5
10000.5
10000.5
10000.5
10000.5
10000.5
10000.5
10000.5
10000.5
10000.4
10000.4
10000.4
10000.4
10000.4
10000.4
10000.4
10000.4
10000.4
10000.4
10000.4
10000.4
10000.3
10000.3
10000.3
10000.3
10000.3
10000.3
10000.3
10000.3
10000.2
12832.7
14325.6
14505.4
14608.4
14668.7
14702.7
14722.3
14732.8
14738.8
14742.4
14744.8
14746.3
14750.7
14754.2
14754.7
14755
14754.7
14754.7
14667.6
14633
)
;

boundaryField
{
    frontHeated
    {
        type            fixedFluxPressure;
        gradient        uniform -34.3011;
        value           uniform 10000.3;
    }
    backOutlet
    {
        type            prghTotalPressure;
        rho             thermo:rho;
        psi             none;
        gamma           1;
        p0              uniform 0;
        value           uniform 4632.98;
        rho             thermo:rho;
    }
    defaultFaces
    {
        type            empty;
    }
}


// ************************************************************************* //
