/*--------------------------------*- C++ -*----------------------------------*\
  =========                 |
  \\      /  F ield         | OpenFOAM: The Open Source CFD Toolbox
   \\    /   O peration     | Website:  https://openfoam.org
    \\  /    A nd           | Version:  dev
     \\/     M anipulation  |
\*---------------------------------------------------------------------------*/
FoamFile
{
    format      ascii;
    class       volScalarField;
    location    "0.204339";
    object      T;
}
// * * * * * * * * * * * * * * * * * * * * * * * * * * * * * * * * * * * * * //

dimensions      [0 0 0 1 0 0 0];

internalField   nonuniform List<scalar> 
100
(
238.274
208.427
199.919
196.595
195.053
194.258
193.824
193.583
193.454
193.394
193.38
193.396
193.432
193.483
193.543
193.608
193.677
193.745
193.813
193.879
193.94
193.998
194.051
194.099
194.144
194.186
194.227
194.267
194.311
194.361
194.42
194.493
194.583
194.696
194.837
195.012
195.226
195.485
195.795
196.164
196.597
197.1
197.68
198.344
199.097
199.946
200.898
201.958
203.134
204.431
205.857
207.417
209.12
210.972
212.98
215.152
217.495
220.016
222.723
225.621
228.714
232.005
235.501
239.213
243.159
247.363
251.854
256.664
261.817
267.331
273.206
279.425
285.957
292.758
299.776
306.955
314.239
321.569
328.889
336.065
343.007
348.33
356.291
337.026
385.121
385.124
385.126
385.128
385.13
385.132
385.133
385.135
385.136
385.138
385.139
385.141
385.142
385.143
385.144
385.112
)
;

boundaryField
{
    frontHeated
    {
        type            fixedValue;
        value           uniform 385.15;
    }
    backOutlet
    {
        type            fixedValue;
        value           uniform 385.15;
    }
    defaultFaces
    {
        type            empty;
    }
}


// ************************************************************************* //
