/*--------------------------------*- C++ -*----------------------------------*\
  =========                 |
  \\      /  F ield         | OpenFOAM: The Open Source CFD Toolbox
   \\    /   O peration     | Website:  https://openfoam.org
    \\  /    A nd           | Version:  dev
     \\/     M anipulation  |
\*---------------------------------------------------------------------------*/
FoamFile
{
    format      ascii;
    class       volVectorField;
    location    "0.204339";
    object      U;
}
// * * * * * * * * * * * * * * * * * * * * * * * * * * * * * * * * * * * * * //

dimensions      [0 1 -1 0 0 0 0];

internalField   nonuniform List<vector> 
100
(
(0.0355794 0 0)
(0.0923602 0 0)
(0.142048 0 0)
(0.189679 0 0)
(0.237158 0 0)
(0.284814 0 0)
(0.332558 0 0)
(0.380304 0 0)
(0.428032 0 0)
(0.47575 0 0)
(0.523468 0 0)
(0.571192 0 0)
(0.618925 0 0)
(0.666672 0 0)
(0.714438 0 0)
(0.762231 0 0)
(0.810059 0 0)
(0.857932 0 0)
(0.905856 0 0)
(0.953838 0 0)
(1.00188 0 0)
(1.04999 0 0)
(1.09816 0 0)
(1.14639 0 0)
(1.19466 0 0)
(1.24296 0 0)
(1.29126 0 0)
(1.33954 0 0)
(1.38776 0 0)
(1.43585 0 0)
(1.48377 0 0)
(1.53145 0 0)
(1.57879 0 0)
(1.62572 0 0)
(1.67211 0 0)
(1.7179 0 0)
(1.76298 0 0)
(1.80724 0 0)
(1.85055 0 0)
(1.89275 0 0)
(1.93369 0 0)
(1.97326 0 0)
(2.0114 0 0)
(2.04804 0 0)
(2.08313 0 0)
(2.11661 0 0)
(2.1484 0 0)
(2.17842 0 0)
(2.2066 0 0)
(2.23288 0 0)
(2.2572 0 0)
(2.27952 0 0)
(2.29983 0 0)
(2.31809 0 0)
(2.33429 0 0)
(2.34843 0 0)
(2.36055 0 0)
(2.37069 0 0)
(2.37886 0 0)
(2.38513 0 0)
(2.38982 0 0)
(2.3934 0 0)
(2.39635 0 0)
(2.39887 0 0)
(2.40087 0 0)
(2.40186 0 0)
(2.40069 0 0)
(2.39517 0 0)
(2.38223 0 0)
(2.35861 0 0)
(2.32228 0 0)
(2.27369 0 0)
(2.21651 0 0)
(2.15756 0 0)
(2.10596 0 0)
(2.0718 0 0)
(2.06447 0 0)
(2.09083 0 0)
(2.1546 0 0)
(2.25555 0 0)
(2.38514 0 0)
(2.51918 0 0)
(2.64895 0 0)
(2.69048 0 0)
(4.57754 0 0)
(4.5974 0 0)
(4.62397 0 0)
(4.64489 0 0)
(4.65438 0 0)
(4.65582 0 0)
(4.65304 0 0)
(4.6497 0 0)
(4.64683 0 0)
(4.64467 0 0)
(4.64159 0 0)
(4.64376 0 0)
(4.6191 0 0)
(4.72253 0 0)
(4.20694 0 0)
(6.76654 0 0)
)
;

boundaryField
{
    frontHeated
    {
        type            noSlip;
    }
    backOutlet
    {
        type            pressureInletOutletVelocity;
        value           uniform (6.76654 0 0);
    }
    defaultFaces
    {
        type            empty;
    }
}


// ************************************************************************* //
