/*--------------------------------*- C++ -*----------------------------------*\
  =========                 |
  \\      /  F ield         | OpenFOAM: The Open Source CFD Toolbox
   \\    /   O peration     | Website:  https://openfoam.org
    \\  /    A nd           | Version:  dev
     \\/     M anipulation  |
\*---------------------------------------------------------------------------*/
FoamFile
{
    format      ascii;
    class       volScalarField;
    location    "0.229372";
    object      rhoSmear;
}
// * * * * * * * * * * * * * * * * * * * * * * * * * * * * * * * * * * * * * //

dimensions      [1 -3 -1 0 0 0 0];

internalField   nonuniform List<scalar> 
100
(
4.62342e-18
5.13714e-18
6.22164e-18
7.99744e-18
1.06618e-17
1.45109e-17
1.99723e-17
2.76528e-17
3.84059e-17
5.34262e-17
7.43828e-17
1.03604e-16
1.44337e-16
2.01108e-16
2.80223e-16
3.90475e-16
5.44113e-16
7.58207e-16
1.05655e-15
1.47228e-15
2.0516e-15
2.85888e-15
3.98381e-15
5.55138e-15
7.73578e-15
1.07797e-14
1.50214e-14
2.09321e-14
2.91686e-14
4.06461e-14
5.66397e-14
7.89267e-14
1.09983e-13
1.5326e-13
2.13566e-13
2.97602e-13
4.14704e-13
5.77885e-13
8.05275e-13
1.12214e-12
1.56369e-12
2.17898e-12
3.03638e-12
4.23115e-12
5.89605e-12
8.21607e-12
1.1449e-11
1.5954e-11
2.22317e-11
3.09796e-11
4.31696e-11
6.01563e-11
8.38271e-11
1.16812e-10
1.62776e-10
2.26826e-10
3.16079e-10
4.40452e-10
6.13764e-10
8.55272e-10
1.19181e-09
1.66077e-09
2.31426e-09
3.2249e-09
4.49385e-09
6.26212e-09
8.72618e-09
1.21598e-08
1.69445e-08
2.3612e-08
3.2903e-08
4.58499e-08
6.38913e-08
8.90316e-08
1.24064e-07
1.72882e-07
2.40909e-07
3.35703e-07
4.67798e-07
6.51871e-07
9.08373e-07
1.26581e-06
1.76388e-06
2.45795e-06
3.42512e-06
4.77286e-06
6.65092e-06
9.26797e-06
1.29148e-05
1.79966e-05
2.5078e-05
3.49459e-05
4.86966e-05
6.78581e-05
9.45593e-05
0
0
0
0
0
)
;

boundaryField
{
    frontHeated
    {
        type            zeroGradient;
    }
    backOutlet
    {
        type            zeroGradient;
    }
    defaultFaces
    {
        type            empty;
    }
}


// ************************************************************************* //
