/*--------------------------------*- C++ -*----------------------------------*\
  =========                 |
  \\      /  F ield         | OpenFOAM: The Open Source CFD Toolbox
   \\    /   O peration     | Website:  https://openfoam.org
    \\  /    A nd           | Version:  dev
     \\/     M anipulation  |
\*---------------------------------------------------------------------------*/
FoamFile
{
    format      ascii;
    class       volScalarField;
    location    "0.229372";
    object      T;
}
// * * * * * * * * * * * * * * * * * * * * * * * * * * * * * * * * * * * * * //

dimensions      [0 0 0 1 0 0 0];

internalField   nonuniform List<scalar> 
100
(
240.679
205.732
195.139
190.837
188.787
187.704
187.094
186.736
186.526
186.405
186.343
186.32
186.325
186.348
186.386
186.432
186.485
186.542
186.601
186.661
186.72
186.777
186.831
186.883
186.931
186.976
187.019
187.058
187.096
187.134
187.172
187.213
187.259
187.311
187.373
187.448
187.538
187.647
187.779
187.938
188.127
188.351
188.613
188.919
189.272
189.677
190.138
190.66
191.246
191.901
192.63
193.437
194.325
195.301
196.367
197.528
198.789
200.154
201.628
203.216
204.922
206.75
208.706
210.794
213.016
215.378
217.883
220.536
223.343
226.312
229.452
232.775
236.292
240.017
243.959
248.128
252.527
257.156
262.008
267.075
272.331
277.775
283.373
289.028
294.66
300.34
306.301
312.818
320.314
327.327
334.885
344.368
353.805
364.951
385.06
385.12
385.122
385.124
385.126
384.766
)
;

boundaryField
{
    frontHeated
    {
        type            fixedValue;
        value           uniform 385.15;
    }
    backOutlet
    {
        type            fixedValue;
        value           uniform 385.15;
    }
    defaultFaces
    {
        type            empty;
    }
}


// ************************************************************************* //
