/*--------------------------------*- C++ -*----------------------------------*\
  =========                 |
  \\      /  F ield         | OpenFOAM: The Open Source CFD Toolbox
   \\    /   O peration     | Website:  https://openfoam.org
    \\  /    A nd           | Version:  dev
     \\/     M anipulation  |
\*---------------------------------------------------------------------------*/
FoamFile
{
    format      ascii;
    class       volScalarField;
    location    "0.119517";
    object      rhoSmear;
}
// * * * * * * * * * * * * * * * * * * * * * * * * * * * * * * * * * * * * * //

dimensions      [1 -3 -1 0 0 0 0];

internalField   nonuniform List<scalar> 
100
(
7.26646e-11
8.07384e-11
9.77832e-11
1.25693e-10
1.67568e-10
2.28062e-10
3.13897e-10
4.34608e-10
6.0361e-10
8.39679e-10
1.16905e-09
1.62831e-09
2.26849e-09
3.16073e-09
4.40416e-09
6.13694e-09
8.55161e-09
1.19165e-08
1.66053e-08
2.31393e-08
3.22442e-08
4.49319e-08
6.2612e-08
8.7249e-08
1.2158e-07
1.69421e-07
2.36085e-07
3.28982e-07
4.58432e-07
6.38818e-07
8.90185e-07
1.24046e-06
1.72857e-06
2.40873e-06
3.35654e-06
4.67729e-06
6.51775e-06
9.08239e-06
1.26562e-05
1.76362e-05
2.45759e-05
3.42461e-05
4.77216e-05
6.64994e-05
9.2666e-05
0.000129129
0
0
0
0
0
0
0
0
0
-0.000129129
-9.2666e-05
-6.64994e-05
-4.77216e-05
-3.42461e-05
-2.45759e-05
-1.76362e-05
-1.26562e-05
-9.08239e-06
-6.51775e-06
-4.67729e-06
-3.35654e-06
-2.40873e-06
-1.72857e-06
-1.24046e-06
-8.90185e-07
-6.38818e-07
-4.58432e-07
-3.28982e-07
-2.36085e-07
-1.69421e-07
-1.2158e-07
-8.7249e-08
-6.2612e-08
-4.49319e-08
-3.22443e-08
-2.31393e-08
-1.66054e-08
-1.19166e-08
-8.55175e-09
-6.13714e-09
-4.40444e-09
-3.16111e-09
-2.26903e-09
-1.62905e-09
-1.17008e-09
-8.41123e-10
-6.05621e-10
-4.37411e-10
-3.17802e-10
-2.33504e-10
-1.75151e-10
-1.3626e-10
-1.12508e-10
-1.01257e-10
)
;

boundaryField
{
    frontHeated
    {
        type            zeroGradient;
    }
    backOutlet
    {
        type            zeroGradient;
    }
    defaultFaces
    {
        type            empty;
    }
}


// ************************************************************************* //
