/*--------------------------------*- C++ -*----------------------------------*\
  =========                 |
  \\      /  F ield         | OpenFOAM: The Open Source CFD Toolbox
   \\    /   O peration     | Website:  https://openfoam.org
    \\  /    A nd           | Version:  dev
     \\/     M anipulation  |
\*---------------------------------------------------------------------------*/
FoamFile
{
    format      ascii;
    class       volScalarField;
    location    "0.112774";
    object      epsilon;
}
// * * * * * * * * * * * * * * * * * * * * * * * * * * * * * * * * * * * * * //

dimensions      [0 2 -3 0 0 0 0];

internalField   nonuniform List<scalar> 
100
(
0.241405
0.142949
0.131729
0.134792
0.140734
0.147016
0.152964
0.15831
0.16294
0.166822
0.169967
0.17241
0.174206
0.17544
0.176231
0.176734
0.177132
0.177613
0.178351
0.179475
0.181043
0.183038
0.185366
0.187883
0.190421
0.192821
0.194962
0.196787
0.198331
0.199737
0.201299
0.203499
0.2071
0.21328
0.223904
0.24203
0.272962
0.32649
0.422743
0.603177
1.01203
1.58849
4.99439
2.94309
2.02323
1.36566
1.01096
0.801044
0.666288
0.573159
0.50425
0.450004
0.404998
0.366123
0.331609
0.300479
0.272215
0.246554
0.22336
0.202546
0.184032
0.16772
0.153487
0.141187
0.130654
0.121715
0.114191
0.107909
0.102703
0.0984201
0.0949213
0.0920821
0.0897933
0.0879599
0.0865004
0.0853457
0.0844374
0.0837272
0.083175
0.0827481
0.0824197
0.0821684
0.0819772
0.0818325
0.0817253
0.0816578
0.0816441
0.0816844
0.081782
0.0819538
0.0822063
0.0825616
0.0830757
0.0838866
0.0854233
0.0895398
0.106464
0.235426
1.71962
5.29777
)
;

boundaryField
{
    frontHeated
    {
        type            epsilonWallFunction;
        value           uniform 0.241405;
    }
    backOutlet
    {
        type            inletOutlet;
        inletValue      uniform 0.1;
        value           uniform 5.29777;
    }
    defaultFaces
    {
        type            empty;
    }
}


// ************************************************************************* //
