/*--------------------------------*- C++ -*----------------------------------*\
  =========                 |
  \\      /  F ield         | OpenFOAM: The Open Source CFD Toolbox
   \\    /   O peration     | Website:  https://openfoam.org
    \\  /    A nd           | Version:  dev
     \\/     M anipulation  |
\*---------------------------------------------------------------------------*/
FoamFile
{
    format      ascii;
    class       volScalarField;
    location    "0.112774";
    object      thermo:rho;
}
// * * * * * * * * * * * * * * * * * * * * * * * * * * * * * * * * * * * * * //

dimensions      [1 -3 0 0 0 0 0];

internalField   nonuniform List<scalar> 
100
(
0.131434
0.135881
0.136951
0.137318
0.137451
0.137481
0.137458
0.137406
0.137339
0.137266
0.137194
0.137127
0.137071
0.137027
0.136995
0.136974
0.136957
0.136933
0.136886
0.136796
0.136639
0.136387
0.136012
0.135488
0.134789
0.133893
0.132783
0.131445
0.129867
0.128042
0.125969
0.123645
0.121075
0.118263
0.115218
0.11195
0.108475
0.104811
0.100973
0.0970571
0.0926693
0.0906844
0.0721951
460.805
879.662
918.905
941.003
953.456
960.476
964.434
966.667
967.926
968.635
969.036
969.261
969.389
969.46
969.501
969.523
969.536
969.543
969.547
969.549
969.551
969.551
969.552
969.552
969.552
969.552
969.552
969.552
969.552
969.552
969.552
969.552
969.552
969.552
969.552
969.552
969.552
969.552
969.552
969.552
969.552
969.552
969.552
969.552
969.552
969.552
969.552
969.552
969.552
969.552
969.552
969.552
969.552
969.552
969.552
969.552
969.553
)
;

boundaryField
{
    frontHeated
    {
        type            calculated;
        value           uniform 0.0844894;
    }
    backOutlet
    {
        type            calculated;
        value           uniform 969.553;
    }
    defaultFaces
    {
        type            empty;
    }
}


// ************************************************************************* //
