/*--------------------------------*- C++ -*----------------------------------*\
  =========                 |
  \\      /  F ield         | OpenFOAM: The Open Source CFD Toolbox
   \\    /   O peration     | Website:  https://openfoam.org
    \\  /    A nd           | Version:  dev
     \\/     M anipulation  |
\*---------------------------------------------------------------------------*/
FoamFile
{
    format      ascii;
    class       volScalarField;
    location    "0.137025";
    object      rhoSmear;
}
// * * * * * * * * * * * * * * * * * * * * * * * * * * * * * * * * * * * * * //

dimensions      [1 -3 -1 0 0 0 0];

internalField   nonuniform List<scalar> 
100
(
6.66812e-12
7.40902e-12
8.97315e-12
1.15343e-11
1.5377e-11
2.09283e-11
2.8805e-11
3.98822e-11
5.53908e-11
7.70539e-11
1.07278e-10
1.49423e-10
2.0817e-10
2.90047e-10
4.04151e-10
5.63162e-10
7.84745e-10
1.09352e-09
1.5238e-09
2.12339e-09
2.95892e-09
4.12321e-09
5.74564e-09
8.00647e-09
1.11569e-08
1.5547e-08
2.16646e-08
3.01893e-08
4.20683e-08
5.86217e-08
8.16885e-08
1.13832e-07
1.58623e-07
2.21039e-07
3.08016e-07
4.29216e-07
5.98106e-07
8.33453e-07
1.16141e-06
1.6184e-06
2.25522e-06
3.14263e-06
4.37921e-06
6.10237e-06
8.50357e-06
1.18496e-05
1.65123e-05
2.30096e-05
3.20636e-05
4.46802e-05
6.22613e-05
8.67603e-05
0.000120899
0.000168472
0
0
0
0
0
0
0
0
0
-0.000168472
-0.000120899
-8.67603e-05
-6.22613e-05
-4.46802e-05
-3.20636e-05
-2.30096e-05
-1.65123e-05
-1.18496e-05
-8.50357e-06
-6.10237e-06
-4.37921e-06
-3.14263e-06
-2.25522e-06
-1.6184e-06
-1.16141e-06
-8.33454e-07
-5.98108e-07
-4.29218e-07
-3.08018e-07
-2.21043e-07
-1.58629e-07
-1.13839e-07
-8.16991e-08
-5.86363e-08
-4.20887e-08
-3.02177e-08
-2.17042e-08
-1.56022e-08
-1.12338e-08
-8.11365e-09
-5.89499e-09
-4.33133e-09
-3.24893e-09
-2.52751e-09
-2.08694e-09
-1.87824e-09
)
;

boundaryField
{
    frontHeated
    {
        type            zeroGradient;
    }
    backOutlet
    {
        type            zeroGradient;
    }
    defaultFaces
    {
        type            empty;
    }
}


// ************************************************************************* //
