/*--------------------------------*- C++ -*----------------------------------*\
  =========                 |
  \\      /  F ield         | OpenFOAM: The Open Source CFD Toolbox
   \\    /   O peration     | Website:  https://openfoam.org
    \\  /    A nd           | Version:  dev
     \\/     M anipulation  |
\*---------------------------------------------------------------------------*/
FoamFile
{
    format      ascii;
    class       volScalarField;
    location    "0.137025";
    object      T;
}
// * * * * * * * * * * * * * * * * * * * * * * * * * * * * * * * * * * * * * //

dimensions      [0 0 0 1 0 0 0];

internalField   nonuniform List<scalar> 
100
(
239.363
226.042
222.856
221.72
221.242
221.042
220.979
220.992
221.051
221.137
221.237
221.342
221.447
221.545
221.634
221.709
221.772
221.822
221.864
221.904
221.952
222.019
222.123
222.282
222.517
222.852
223.31
223.916
224.697
225.676
226.878
228.327
230.048
232.065
234.401
237.084
240.139
243.594
247.482
251.833
256.685
262.074
268.041
274.626
281.87
289.806
298.457
307.827
317.86
328.488
338.806
351.669
344.124
385.123
385.126
385.128
385.13
385.132
385.134
385.136
385.138
385.14
385.141
385.143
385.144
385.145
385.147
385.148
385.149
385.149
385.15
385.151
385.151
385.151
385.152
385.152
385.152
385.152
385.153
385.153
385.153
385.153
385.153
385.153
385.153
385.153
385.153
385.153
385.153
385.153
385.153
385.153
385.153
385.153
385.153
385.153
385.153
385.153
385.153
385.151
)
;

boundaryField
{
    frontHeated
    {
        type            fixedValue;
        value           uniform 385.15;
    }
    backOutlet
    {
        type            fixedValue;
        value           uniform 385.15;
    }
    defaultFaces
    {
        type            empty;
    }
}


// ************************************************************************* //
