/*--------------------------------*- C++ -*----------------------------------*\
  =========                 |
  \\      /  F ield         | OpenFOAM: The Open Source CFD Toolbox
   \\    /   O peration     | Website:  https://openfoam.org
    \\  /    A nd           | Version:  dev
     \\/     M anipulation  |
\*---------------------------------------------------------------------------*/
FoamFile
{
    format      ascii;
    class       volScalarField;
    location    "0.137025";
    object      thermo:rho;
}
// * * * * * * * * * * * * * * * * * * * * * * * * * * * * * * * * * * * * * //

dimensions      [1 -3 0 0 0 0 0];

internalField   nonuniform List<scalar> 
100
(
0.103897
0.11002
0.111593
0.112165
0.112407
0.112509
0.112541
0.112534
0.112504
0.112461
0.11241
0.112357
0.112304
0.112254
0.112209
0.112171
0.11214
0.112114
0.112093
0.112073
0.112049
0.112015
0.111963
0.111883
0.111765
0.111598
0.111369
0.111067
0.110682
0.110202
0.109618
0.108923
0.108108
0.107169
0.106101
0.104901
0.103566
0.102097
0.100494
0.0987575
0.0968911
0.0948989
0.0927864
0.0905614
0.0882341
0.0858179
0.0833305
0.080794
0.0782438
0.0757124
0.0734067
0.0707217
0.0722699
0.046525
697.691
893.895
927.078
945.7
956.156
962.028
965.326
967.179
968.22
968.805
969.133
969.317
969.421
969.479
969.511
969.53
969.54
969.545
969.548
969.55
969.551
969.552
969.552
969.552
969.552
969.552
969.552
969.552
969.552
969.552
969.552
969.552
969.552
969.552
969.552
969.552
969.552
969.552
969.552
969.552
969.552
969.552
969.552
969.552
969.552
969.552
)
;

boundaryField
{
    frontHeated
    {
        type            calculated;
        value           uniform 0.0645701;
    }
    backOutlet
    {
        type            calculated;
        value           uniform 969.553;
    }
    defaultFaces
    {
        type            empty;
    }
}


// ************************************************************************* //
