/*--------------------------------*- C++ -*----------------------------------*\
  =========                 |
  \\      /  F ield         | OpenFOAM: The Open Source CFD Toolbox
   \\    /   O peration     | Website:  https://openfoam.org
    \\  /    A nd           | Version:  dev
     \\/     M anipulation  |
\*---------------------------------------------------------------------------*/
FoamFile
{
    format      ascii;
    class       volScalarField;
    location    "0.0663092";
    object      p;
}
// * * * * * * * * * * * * * * * * * * * * * * * * * * * * * * * * * * * * * //

dimensions      [1 -1 -2 0 0 0 0];

internalField   nonuniform List<scalar> 
100
(
30638.8
30638.8
30638.8
30638.8
30638.8
30638.8
30638.8
30638.7
30638.7
30638.7
30638.6
30638.6
30638.5
30638.5
30638.4
30638.3
30638.2
30638.1
30638
30637.9
30637.8
30637.6
30637.4
30637.3
30688.4
30262.9
29912.4
29621.3
29326.4
29025.3
28726.5
28428.1
28129.2
27829.7
27529.4
27228
26925.1
26620.6
26314.3
26006.1
25696.1
25384.3
25070.9
24756.3
24440.6
24124.1
23807
23489.4
23171.4
22853.2
22534.9
22216.4
21897.9
21579.3
21260.7
20942
20623.3
20304.6
19985.9
19667.2
19348.5
19029.8
18711.1
18392.4
18073.7
17755
17436.3
17117.6
16798.9
16480.1
16161.4
15842.7
15524
15205.3
14886.6
14567.9
14249.2
13930.5
13611.8
13293
12974.3
12655.6
12336.9
12018.2
11699.5
11380.8
11062.1
10742.4
10424.8
10099.9
10000
10000
10000
10000
10000
10000
10000
10000
10000
10000
)
;

boundaryField
{
    frontHeated
    {
        type            calculated;
        value           uniform 30638.8;
    }
    backOutlet
    {
        type            calculated;
        value           uniform 10000;
    }
    defaultFaces
    {
        type            empty;
    }
}


// ************************************************************************* //
