/*--------------------------------*- C++ -*----------------------------------*\
  =========                 |
  \\      /  F ield         | OpenFOAM: The Open Source CFD Toolbox
   \\    /   O peration     | Website:  https://openfoam.org
    \\  /    A nd           | Version:  dev
     \\/     M anipulation  |
\*---------------------------------------------------------------------------*/
FoamFile
{
    format      ascii;
    class       volScalarField;
    location    "0.0663092";
    object      rhoSmear;
}
// * * * * * * * * * * * * * * * * * * * * * * * * * * * * * * * * * * * * * //

dimensions      [1 -3 -1 0 0 0 0];

internalField   nonuniform List<scalar> 
100
(
6.48212e-08
7.20236e-08
8.72286e-08
1.12126e-07
1.49481e-07
2.03445e-07
2.80015e-07
3.87697e-07
5.38457e-07
7.49045e-07
1.04286e-06
1.45255e-06
2.02363e-06
2.81957e-06
3.92878e-06
5.47453e-06
7.62856e-06
1.06302e-05
1.4813e-05
2.06417e-05
2.87638e-05
4.0082e-05
5.58537e-05
7.78314e-05
0
0
0
0
0
0
0
0
0
0
-7.78314e-05
-5.58537e-05
-4.0082e-05
-2.87638e-05
-2.06416e-05
-1.48129e-05
-1.06301e-05
-7.62842e-06
-5.47434e-06
-3.92852e-06
-2.8192e-06
-2.02313e-06
-1.45185e-06
-1.04188e-06
-7.47678e-07
-5.36552e-07
-3.85043e-07
-2.76316e-07
-1.98291e-07
-1.42299e-07
-1.02117e-07
-7.32816e-08
-5.25886e-08
-3.77389e-08
-2.70823e-08
-1.94349e-08
-1.3947e-08
-1.00087e-08
-7.18248e-09
-5.15433e-09
-3.69887e-09
-2.6544e-09
-1.90486e-09
-1.36697e-09
-9.80974e-10
-7.03971e-10
-5.05187e-10
-3.62534e-10
-2.60163e-10
-1.867e-10
-1.3398e-10
-9.61474e-11
-6.89977e-11
-4.95144e-11
-3.55328e-11
-2.54992e-11
-1.82989e-11
-1.31317e-11
-9.4237e-12
-6.76273e-12
-4.85318e-12
-3.48287e-12
-2.49955e-12
-1.79396e-12
-1.28769e-12
-9.24498e-13
-6.6403e-13
-4.77343e-13
-3.43694e-13
-2.48234e-13
-1.80355e-13
-1.32515e-13
-9.93996e-14
-7.73283e-14
-6.38491e-14
-5.74642e-14
)
;

boundaryField
{
    frontHeated
    {
        type            zeroGradient;
    }
    backOutlet
    {
        type            zeroGradient;
    }
    defaultFaces
    {
        type            empty;
    }
}


// ************************************************************************* //
