/*--------------------------------*- C++ -*----------------------------------*\
  =========                 |
  \\      /  F ield         | OpenFOAM: The Open Source CFD Toolbox
   \\    /   O peration     | Website:  https://openfoam.org
    \\  /    A nd           | Version:  dev
     \\/     M anipulation  |
\*---------------------------------------------------------------------------*/
FoamFile
{
    format      ascii;
    class       volScalarField;
    location    "0.0794857";
    object      rhoSmear;
}
// * * * * * * * * * * * * * * * * * * * * * * * * * * * * * * * * * * * * * //

dimensions      [1 -3 -1 0 0 0 0];

internalField   nonuniform List<scalar> 
100
(
1.39919e-08
1.55466e-08
1.88286e-08
2.42028e-08
3.22661e-08
4.39146e-08
6.04424e-08
8.36861e-08
1.16228e-07
1.61685e-07
2.25106e-07
3.13539e-07
4.3681e-07
6.08615e-07
8.48044e-07
1.1817e-06
1.64666e-06
2.29457e-06
3.19744e-06
4.45559e-06
6.20879e-06
8.65187e-06
1.20563e-05
1.68002e-05
2.34109e-05
3.26228e-05
4.54594e-05
6.33471e-05
8.82734e-05
0
0
0
0
0
0
0
0
0
0
-8.82734e-05
-6.33471e-05
-4.54594e-05
-3.26228e-05
-2.34109e-05
-1.68002e-05
-1.20563e-05
-8.65186e-06
-6.20879e-06
-4.45558e-06
-3.19743e-06
-2.29455e-06
-1.64663e-06
-1.18166e-06
-8.47988e-07
-6.08537e-07
-4.36701e-07
-3.13387e-07
-2.24894e-07
-1.61389e-07
-1.15817e-07
-8.31131e-08
-5.9644e-08
-4.2802e-08
-3.07157e-08
-2.20424e-08
-1.58181e-08
-1.13515e-08
-8.1461e-09
-5.84584e-09
-4.19511e-09
-3.01052e-09
-2.16042e-09
-1.55037e-09
-1.11258e-09
-7.98417e-10
-5.72963e-10
-4.11172e-10
-2.95067e-10
-2.11748e-10
-1.51955e-10
-1.09047e-10
-7.82549e-11
-5.61579e-11
-4.03006e-11
-2.89212e-11
-2.07552e-11
-1.48954e-11
-1.06906e-11
-7.67361e-12
-5.50929e-12
-3.9571e-12
-2.84459e-12
-2.04815e-12
-1.47928e-12
-1.07477e-12
-7.89687e-13
-5.92344e-13
-4.60816e-13
-3.8049e-13
-3.42441e-13
)
;

boundaryField
{
    frontHeated
    {
        type            zeroGradient;
    }
    backOutlet
    {
        type            zeroGradient;
    }
    defaultFaces
    {
        type            empty;
    }
}


// ************************************************************************* //
