/*--------------------------------*- C++ -*----------------------------------*\
  =========                 |
  \\      /  F ield         | OpenFOAM: The Open Source CFD Toolbox
   \\    /   O peration     | Website:  https://openfoam.org
    \\  /    A nd           | Version:  dev
     \\/     M anipulation  |
\*---------------------------------------------------------------------------*/
FoamFile
{
    format      ascii;
    class       volScalarField;
    location    "0.0794857";
    object      thermo:rho;
}
// * * * * * * * * * * * * * * * * * * * * * * * * * * * * * * * * * * * * * //

dimensions      [1 -3 0 0 0 0 0];

internalField   nonuniform List<scalar> 
100
(
0.193939
0.196317
0.196838
0.196972
0.196964
0.196891
0.196787
0.196675
0.196574
0.196495
0.196446
0.196431
0.196443
0.196444
0.196353
0.196049
0.19539
0.194239
0.192484
0.190041
0.186859
0.182915
0.178205
0.172749
0.166577
0.159749
0.152227
0.144875
0.131883
200.384
863.071
909.517
935.686
950.443
958.768
963.466
966.117
967.614
968.458
968.935
969.204
969.356
969.442
969.49
969.517
969.532
969.541
969.546
969.549
969.55
969.551
969.552
969.552
969.552
969.552
969.552
969.552
969.552
969.552
969.552
969.552
969.552
969.552
969.552
969.552
969.552
969.552
969.552
969.552
969.552
969.552
969.552
969.552
969.552
969.552
969.552
969.552
969.552
969.552
969.552
969.552
969.552
969.552
969.552
969.552
969.552
969.552
969.552
969.552
969.552
969.552
969.552
969.552
969.552
969.552
969.552
969.552
969.553
969.553
969.553
)
;

boundaryField
{
    frontHeated
    {
        type            calculated;
        value           uniform 0.136858;
    }
    backOutlet
    {
        type            calculated;
        value           uniform 969.553;
    }
    defaultFaces
    {
        type            empty;
    }
}


// ************************************************************************* //
