/*--------------------------------*- C++ -*----------------------------------*\
  =========                 |
  \\      /  F ield         | OpenFOAM: The Open Source CFD Toolbox
   \\    /   O peration     | Website:  https://openfoam.org
    \\  /    A nd           | Version:  dev
     \\/     M anipulation  |
\*---------------------------------------------------------------------------*/
FoamFile
{
    format      ascii;
    class       volScalarField;
    location    "0.196411";
    object      T;
}
// * * * * * * * * * * * * * * * * * * * * * * * * * * * * * * * * * * * * * //

dimensions      [0 0 0 1 0 0 0];

internalField   nonuniform List<scalar> 
100
(
237.585
209.518
201.663
198.629
197.233
196.52
196.135
195.927
195.821
195.779
195.779
195.806
195.852
195.91
195.976
196.047
196.119
196.19
196.259
196.324
196.385
196.441
196.492
196.538
196.581
196.622
196.663
196.707
196.757
196.817
196.892
196.986
197.105
197.256
197.444
197.676
197.96
198.301
198.708
199.188
199.747
200.394
201.134
201.976
202.927
203.993
205.183
206.502
207.96
209.563
211.32
213.237
215.324
217.59
220.041
222.688
225.539
228.601
231.879
235.376
239.095
243.045
247.244
251.724
256.522
261.684
267.247
273.235
279.648
286.46
293.62
301.061
308.708
316.488
324.337
332.174
340.038
347.121
357.734
347.517
385.121
385.124
385.126
385.128
385.13
385.131
385.133
385.135
385.136
385.138
385.139
385.141
385.142
385.143
385.144
385.145
385.146
385.147
385.148
385.134
)
;

boundaryField
{
    frontHeated
    {
        type            fixedValue;
        value           uniform 385.15;
    }
    backOutlet
    {
        type            fixedValue;
        value           uniform 385.15;
    }
    defaultFaces
    {
        type            empty;
    }
}


// ************************************************************************* //
