/*--------------------------------*- C++ -*----------------------------------*\
  =========                 |
  \\      /  F ield         | OpenFOAM: The Open Source CFD Toolbox
   \\    /   O peration     | Website:  https://openfoam.org
    \\  /    A nd           | Version:  dev
     \\/     M anipulation  |
\*---------------------------------------------------------------------------*/
FoamFile
{
    format      ascii;
    class       volScalarField;
    location    "0.231029";
    object      T;
}
// * * * * * * * * * * * * * * * * * * * * * * * * * * * * * * * * * * * * * //

dimensions      [0 0 0 1 0 0 0];

internalField   nonuniform List<scalar> 
100
(
240.775
205.543
194.809
190.435
188.345
187.24
186.615
186.248
186.03
185.905
185.839
185.813
185.815
185.836
185.871
185.916
185.968
186.023
186.081
186.139
186.197
186.254
186.308
186.359
186.407
186.452
186.493
186.533
186.57
186.607
186.644
186.683
186.726
186.775
186.833
186.903
186.986
187.088
187.211
187.358
187.534
187.743
187.989
188.275
188.607
188.987
189.422
189.913
190.467
191.086
191.776
192.54
193.382
194.308
195.32
196.424
197.623
198.922
200.326
201.838
203.463
205.207
207.072
209.063
211.185
213.44
215.833
218.367
221.049
223.884
226.881
230.05
233.402
236.949
240.701
244.667
248.854
253.263
257.892
262.732
267.772
272.989
278.375
283.9
289.479
295.058
300.723
306.68
313.339
320.212
327.567
336.338
345.572
356.597
377.382
385.118
385.121
385.122
385.125
384.691
)
;

boundaryField
{
    frontHeated
    {
        type            fixedValue;
        value           uniform 385.15;
    }
    backOutlet
    {
        type            fixedValue;
        value           uniform 385.15;
    }
    defaultFaces
    {
        type            empty;
    }
}


// ************************************************************************* //
