/*--------------------------------*- C++ -*----------------------------------*\
  =========                 |
  \\      /  F ield         | OpenFOAM: The Open Source CFD Toolbox
   \\    /   O peration     | Website:  https://openfoam.org
    \\  /    A nd           | Version:  dev
     \\/     M anipulation  |
\*---------------------------------------------------------------------------*/
FoamFile
{
    format      ascii;
    class       volScalarField;
    location    "0.20041";
    object      T;
}
// * * * * * * * * * * * * * * * * * * * * * * * * * * * * * * * * * * * * * //

dimensions      [0 0 0 1 0 0 0];

internalField   nonuniform List<scalar> 
100
(
237.899
208.936
200.75
197.569
196.099
195.344
194.935
194.71
194.592
194.541
194.533
194.555
194.596
194.65
194.713
194.781
194.851
194.921
194.99
195.055
195.117
195.173
195.225
195.273
195.317
195.358
195.398
195.44
195.486
195.54
195.606
195.688
195.791
195.921
196.083
196.283
196.528
196.824
197.178
197.597
198.087
198.655
199.308
200.053
200.897
201.845
202.905
204.084
205.389
206.827
208.404
210.128
212.007
214.048
216.26
218.649
221.225
223.995
226.965
230.139
233.521
237.116
240.934
244.992
249.318
253.946
258.912
264.247
269.971
276.085
282.568
289.382
296.472
303.777
311.235
318.782
326.361
333.882
341.365
347.851
357.472
344.964
385.121
385.124
385.126
385.128
385.13
385.132
385.133
385.135
385.136
385.138
385.139
385.141
385.142
385.143
385.144
385.145
385.146
385.125
)
;

boundaryField
{
    frontHeated
    {
        type            fixedValue;
        value           uniform 385.15;
    }
    backOutlet
    {
        type            fixedValue;
        value           uniform 385.15;
    }
    defaultFaces
    {
        type            empty;
    }
}


// ************************************************************************* //
