/*--------------------------------*- C++ -*----------------------------------*\
  =========                 |
  \\      /  F ield         | OpenFOAM: The Open Source CFD Toolbox
   \\    /   O peration     | Website:  https://openfoam.org
    \\  /    A nd           | Version:  dev
     \\/     M anipulation  |
\*---------------------------------------------------------------------------*/
FoamFile
{
    format      ascii;
    class       volScalarField;
    location    "0.20041";
    object      thermo:rho;
}
// * * * * * * * * * * * * * * * * * * * * * * * * * * * * * * * * * * * * * //

dimensions      [1 -3 0 0 0 0 0];

internalField   nonuniform List<scalar> 
100
(
0.0910007
0.103616
0.107841
0.109577
0.110399
0.110825
0.111058
0.111186
0.111253
0.111282
0.111287
0.111275
0.111251
0.11122
0.111184
0.111145
0.111105
0.111065
0.111026
0.110989
0.110954
0.110922
0.110892
0.110865
0.110841
0.110817
0.110794
0.110771
0.110744
0.110714
0.110676
0.11063
0.110572
0.110499
0.110408
0.110295
0.110158
0.109992
0.109794
0.109562
0.109291
0.108978
0.108621
0.108216
0.107762
0.107256
0.106695
0.106079
0.105405
0.104672
0.10388
0.103028
0.102115
0.101141
0.100107
0.0990126
0.0978597
0.0966497
0.0953849
0.0940693
0.0927069
0.0913014
0.0898547
0.0883662
0.0868329
0.0852504
0.0836153
0.0819271
0.0801901
0.0784144
0.0766152
0.0748113
0.0730222
0.0712661
0.0695585
0.0679117
0.0663346
0.0648403
0.0634189
0.0622364
0.0605614
0.062758
0.0401625
629.748
887.55
925.064
947.659
954.674
960.466
962.01
963.314
967.107
963.129
964.584
969.556
980.464
968.773
937.125
932.62
932.626
)
;

boundaryField
{
    frontHeated
    {
        type            calculated;
        value           uniform 0.0562093;
    }
    backOutlet
    {
        type            calculated;
        value           uniform 932.618;
    }
    defaultFaces
    {
        type            empty;
    }
}


// ************************************************************************* //
