/*--------------------------------*- C++ -*----------------------------------*\
  =========                 |
  \\      /  F ield         | OpenFOAM: The Open Source CFD Toolbox
   \\    /   O peration     | Website:  https://openfoam.org
    \\  /    A nd           | Version:  dev
     \\/     M anipulation  |
\*---------------------------------------------------------------------------*/
FoamFile
{
    format      ascii;
    class       volScalarField;
    location    "0.0119159";
    object      epsilon;
}
// * * * * * * * * * * * * * * * * * * * * * * * * * * * * * * * * * * * * * //

dimensions      [0 2 -3 0 0 0 0];

internalField   nonuniform List<scalar> 
100
(
1.88383
0.459224
0.198403
0.134392
0.11738
0.119178
0.147955
0.289843
1.27455
5.25628
11.374
2.85883
0.965071
0.371214
0.187869
0.127956
0.107802
0.101045
0.0988149
0.0980911
0.0978595
0.0977861
0.0977631
0.0977559
0.0977537
0.097753
0.0977528
0.0977527
0.0977527
0.0977527
0.0977527
0.0977527
0.0977527
0.0977527
0.0977527
0.0977527
0.0977527
0.0977527
0.0977527
0.0977527
0.0977527
0.0977527
0.0977527
0.0977527
0.0977527
0.0977527
0.0977527
0.0977527
0.0977527
0.0977527
0.0977527
0.0977527
0.0977527
0.0977527
0.0977527
0.0977527
0.0977527
0.0977527
0.0977527
0.0977527
0.0977527
0.0977527
0.0977527
0.0977527
0.0977527
0.0977527
0.0977527
0.0977527
0.0977527
0.0977527
0.0977527
0.0977527
0.0977527
0.0977527
0.0977527
0.0977527
0.0977527
0.0977527
0.0977527
0.0977527
0.0977529
0.0977539
0.0977609
0.0978049
0.0980652
0.0994334
0.104859
0.112798
0.12395
0.15255
0.162244
0.144566
0.129533
0.160606
0.451305
1.78359
4.72952
8.12193
10.5751
10.2117
)
;

boundaryField
{
    frontHeated
    {
        type            epsilonWallFunction;
        value           uniform 1.88383;
    }
    backOutlet
    {
        type            inletOutlet;
        inletValue      uniform 0.1;
        value           uniform 10.2117;
    }
    defaultFaces
    {
        type            empty;
    }
}


// ************************************************************************* //
