/*--------------------------------*- C++ -*----------------------------------*\
  =========                 |
  \\      /  F ield         | OpenFOAM: The Open Source CFD Toolbox
   \\    /   O peration     | Website:  https://openfoam.org
    \\  /    A nd           | Version:  dev
     \\/     M anipulation  |
\*---------------------------------------------------------------------------*/
FoamFile
{
    format      ascii;
    class       volScalarField;
    location    "0.0119159";
    object      p;
}
// * * * * * * * * * * * * * * * * * * * * * * * * * * * * * * * * * * * * * //

dimensions      [1 -1 -2 0 0 0 0];

internalField   nonuniform List<scalar> 
100
(
90433.3
90433.2
90433.1
90433
90432.8
90432.5
90432.1
90431.7
90431.3
90430.9
90430
90118.8
89005.5
87963.1
87013.9
86045.2
85056.3
84065
83075.1
82085.4
81095.5
80105.6
79115.7
78125.8
77135.9
76146
75156.1
74166.2
73176.3
72186.4
71196.4
70206.5
69216.6
68226.7
67236.8
66246.9
65257
64267.1
63277.2
62287.3
61297.4
60307.5
59317.6
58327.7
57337.8
56347.9
55358
54368.1
53378.2
52388.3
51398.4
50408.5
49418.6
48428.7
47438.7
46448.8
45458.9
44469
43479.1
42489.2
41499.3
40509.4
39519.5
38529.6
37539.7
36549.8
35559.9
34570
33580.1
32590.2
31600.3
30610.4
29620.4
28630.5
27640.6
26650.7
25660.8
24670.9
23681
22691.1
21701.2
20711.2
19721.4
18732
17741.7
16741
15716.4
14571.8
12954
10544.9
10000
10000
10000
10000
10000
10000
10000
10000
10000
10000
)
;

boundaryField
{
    frontHeated
    {
        type            calculated;
        value           uniform 90433.3;
    }
    backOutlet
    {
        type            calculated;
        value           uniform 10000;
    }
    defaultFaces
    {
        type            empty;
    }
}


// ************************************************************************* //
