/*--------------------------------*- C++ -*----------------------------------*\
  =========                 |
  \\      /  F ield         | OpenFOAM: The Open Source CFD Toolbox
   \\    /   O peration     | Website:  https://openfoam.org
    \\  /    A nd           | Version:  dev
     \\/     M anipulation  |
\*---------------------------------------------------------------------------*/
FoamFile
{
    format      ascii;
    class       volScalarField;
    location    "0.222471";
    object      T;
}
// * * * * * * * * * * * * * * * * * * * * * * * * * * * * * * * * * * * * * //

dimensions      [0 0 0 1 0 0 0];

internalField   nonuniform List<scalar> 
100
(
240.013
206.396
196.377
192.354
190.452
189.454
188.895
188.572
188.385
188.282
188.234
188.222
188.235
188.267
188.31
188.362
188.42
188.48
188.542
188.603
188.663
188.72
188.775
188.826
188.873
188.917
188.958
188.997
189.035
189.073
189.114
189.159
189.212
189.274
189.35
189.442
189.555
189.693
189.859
190.059
190.296
190.576
190.904
191.283
191.72
192.218
192.783
193.419
194.131
194.924
195.803
196.773
197.838
199.004
200.274
201.656
203.152
204.77
206.513
208.388
210.399
212.551
214.85
217.299
219.902
222.663
225.59
228.689
231.972
235.452
239.143
243.061
247.221
251.633
256.304
261.234
266.414
271.83
277.462
283.287
289.251
295.411
301.5
307.335
313.253
319.957
327.956
337.218
346.7
351.28
365.728
386.12
385.117
385.121
385.123
385.126
385.128
385.129
385.131
384.939
)
;

boundaryField
{
    frontHeated
    {
        type            fixedValue;
        value           uniform 385.15;
    }
    backOutlet
    {
        type            fixedValue;
        value           uniform 385.15;
    }
    defaultFaces
    {
        type            empty;
    }
}


// ************************************************************************* //
