/*--------------------------------*- C++ -*----------------------------------*\
  =========                 |
  \\      /  F ield         | OpenFOAM: The Open Source CFD Toolbox
   \\    /   O peration     | Website:  https://openfoam.org
    \\  /    A nd           | Version:  dev
     \\/     M anipulation  |
\*---------------------------------------------------------------------------*/
FoamFile
{
    format      ascii;
    class       volVectorField;
    location    "0.222471";
    object      U;
}
// * * * * * * * * * * * * * * * * * * * * * * * * * * * * * * * * * * * * * //

dimensions      [0 1 -1 0 0 0 0];

internalField   nonuniform List<vector> 
100
(
(0.0320778 0 0)
(0.0845704 0 0)
(0.130024 0 0)
(0.172913 0 0)
(0.215343 0 0)
(0.2579 0 0)
(0.300606 0 0)
(0.343378 0 0)
(0.386164 0 0)
(0.428947 0 0)
(0.471729 0 0)
(0.514513 0 0)
(0.557303 0 0)
(0.6001 0 0)
(0.64291 0 0)
(0.685738 0 0)
(0.728591 0 0)
(0.771477 0 0)
(0.814403 0 0)
(0.857377 0 0)
(0.900405 0 0)
(0.943493 0 0)
(0.986643 0 0)
(1.02986 0 0)
(1.07313 0 0)
(1.11645 0 0)
(1.15981 0 0)
(1.2032 0 0)
(1.24658 0 0)
(1.28993 0 0)
(1.33322 0 0)
(1.37638 0 0)
(1.41937 0 0)
(1.46211 0 0)
(1.50454 0 0)
(1.54657 0 0)
(1.5881 0 0)
(1.62905 0 0)
(1.66932 0 0)
(1.7088 0 0)
(1.74739 0 0)
(1.78495 0 0)
(1.82135 0 0)
(1.85648 0 0)
(1.89021 0 0)
(1.92247 0 0)
(1.95319 0 0)
(1.98231 0 0)
(2.00976 0 0)
(2.03548 0 0)
(2.05942 0 0)
(2.0815 0 0)
(2.10167 0 0)
(2.11989 0 0)
(2.13612 0 0)
(2.15034 0 0)
(2.16252 0 0)
(2.17266 0 0)
(2.18075 0 0)
(2.18683 0 0)
(2.19093 0 0)
(2.19308 0 0)
(2.19335 0 0)
(2.19188 0 0)
(2.18889 0 0)
(2.18466 0 0)
(2.17942 0 0)
(2.17337 0 0)
(2.16651 0 0)
(2.15864 0 0)
(2.14922 0 0)
(2.13727 0 0)
(2.12135 0 0)
(2.09983 0 0)
(2.07122 0 0)
(2.03477 0 0)
(1.99098 0 0)
(1.94192 0 0)
(1.89099 0 0)
(1.84402 0 0)
(1.8052 0 0)
(1.77768 0 0)
(1.78043 0 0)
(1.82343 0 0)
(1.87564 0 0)
(1.89838 0 0)
(1.914 0 0)
(2.01228 0 0)
(2.25879 0 0)
(2.41528 0 0)
(2.63222 0 0)
(3.38958 0 0)
(4.43077 0 0)
(4.5886 0 0)
(4.62126 0 0)
(4.66454 0 0)
(4.63148 0 0)
(4.77752 0 0)
(4.13296 0 0)
(6.84904 0 0)
)
;

boundaryField
{
    frontHeated
    {
        type            noSlip;
    }
    backOutlet
    {
        type            pressureInletOutletVelocity;
        value           uniform (6.84904 0 0);
    }
    defaultFaces
    {
        type            empty;
    }
}


// ************************************************************************* //
