/*--------------------------------*- C++ -*----------------------------------*\
  =========                 |
  \\      /  F ield         | OpenFOAM: The Open Source CFD Toolbox
   \\    /   O peration     | Website:  https://openfoam.org
    \\  /    A nd           | Version:  dev
     \\/     M anipulation  |
\*---------------------------------------------------------------------------*/
FoamFile
{
    format      ascii;
    class       volScalarField;
    location    "7.097373";
    object      thermo:rho;
}
// * * * * * * * * * * * * * * * * * * * * * * * * * * * * * * * * * * * * * //

dimensions      [1 -3 0 0 0 0 0];

internalField   nonuniform List<scalar> 
100
(
0.565234
0.568065
0.5691
0.569428
0.569099
0.567965
0.565847
0.563912
0.562736
0.562185
407.937
964.132
969.552
969.553
969.553
969.553
969.553
969.553
969.553
969.553
969.553
969.553
969.553
969.553
969.553
969.553
969.553
969.553
969.553
969.553
969.553
969.553
969.553
969.553
969.553
969.553
969.553
969.553
969.553
969.553
969.553
969.553
969.553
969.553
969.553
969.553
969.553
969.553
969.553
969.553
969.553
969.553
969.553
969.553
969.553
969.553
969.553
969.553
969.553
969.553
969.553
969.553
969.553
969.553
969.553
969.553
969.553
969.553
969.553
969.553
969.553
969.553
969.553
969.553
969.553
969.553
969.553
969.553
969.553
969.553
969.553
969.553
969.553
969.553
969.553
969.553
969.553
969.553
969.553
969.553
969.553
969.553
969.553
969.553
969.553
969.553
969.553
969.553
969.552
960.085
)
;

boundaryField
{
    frontHeated
    {
        type            calculated;
        value           uniform 0.562062;
    }
    backOutlet
    {
        type            calculated;
        value           uniform 960.085;
    }
    defaultFaces
    {
        type            empty;
    }
}


// ************************************************************************* //
