/*--------------------------------*- C++ -*----------------------------------*\
  =========                 |
  \\      /  F ield         | OpenFOAM: The Open Source CFD Toolbox
   \\    /   O peration     | Website:  https://openfoam.org
    \\  /    A nd           | Version:  dev
     \\/     M anipulation  |
\*---------------------------------------------------------------------------*/
FoamFile
{
    format      ascii;
    class       volVectorField;
    location    "0.192247";
    object      U;
}
// * * * * * * * * * * * * * * * * * * * * * * * * * * * * * * * * * * * * * //

dimensions      [0 1 -1 0 0 0 0];

internalField   nonuniform List<vector> 
100
(
(0.0382319 0 0)
(0.0982543 0 0)
(0.151274 0 0)
(0.202674 0 0)
(0.254122 0 0)
(0.305737 0 0)
(0.357374 0 0)
(0.408972 0 0)
(0.46054 0 0)
(0.512102 0 0)
(0.563668 0 0)
(0.615242 0 0)
(0.666827 0 0)
(0.718429 0 0)
(0.770054 0 0)
(0.821712 0 0)
(0.87341 0 0)
(0.925158 0 0)
(0.97696 0 0)
(1.02882 0 0)
(1.08074 0 0)
(1.13272 0 0)
(1.18476 0 0)
(1.23683 0 0)
(1.28893 0 0)
(1.34103 0 0)
(1.3931 0 0)
(1.44509 0 0)
(1.49695 0 0)
(1.54862 0 0)
(1.60003 0 0)
(1.65108 0 0)
(1.70168 0 0)
(1.75171 0 0)
(1.80113 0 0)
(1.84984 0 0)
(1.8977 0 0)
(1.94452 0 0)
(1.99014 0 0)
(2.03445 0 0)
(2.0774 0 0)
(2.11898 0 0)
(2.15912 0 0)
(2.19777 0 0)
(2.23482 0 0)
(2.27019 0 0)
(2.3038 0 0)
(2.33558 0 0)
(2.36549 0 0)
(2.39349 0 0)
(2.41954 0 0)
(2.44364 0 0)
(2.46574 0 0)
(2.48584 0 0)
(2.504 0 0)
(2.52032 0 0)
(2.5347 0 0)
(2.54717 0 0)
(2.55834 0 0)
(2.56912 0 0)
(2.58001 0 0)
(2.59084 0 0)
(2.60105 0 0)
(2.6094 0 0)
(2.61311 0 0)
(2.60733 0 0)
(2.58649 0 0)
(2.54713 0 0)
(2.49056 0 0)
(2.42393 0 0)
(2.35916 0 0)
(2.31069 0 0)
(2.29289 0 0)
(2.31716 0 0)
(2.39059 0 0)
(2.51326 0 0)
(2.71112 0 0)
(2.94843 0 0)
(4.55561 0 0)
(4.5681 0 0)
(4.59311 0 0)
(4.64215 0 0)
(4.66118 0 0)
(4.65924 0 0)
(4.65558 0 0)
(4.65123 0 0)
(4.64829 0 0)
(4.646 0 0)
(4.64416 0 0)
(4.64229 0 0)
(4.64013 0 0)
(4.63748 0 0)
(4.63417 0 0)
(4.6303 0 0)
(4.62517 0 0)
(4.6228 0 0)
(4.60196 0 0)
(4.67684 0 0)
(4.24906 0 0)
(6.7563 0 0)
)
;

boundaryField
{
    frontHeated
    {
        type            noSlip;
    }
    backOutlet
    {
        type            pressureInletOutletVelocity;
        value           uniform (6.7563 0 0);
    }
    defaultFaces
    {
        type            empty;
    }
}


// ************************************************************************* //
