/*--------------------------------*- C++ -*----------------------------------*\
  =========                 |
  \\      /  F ield         | OpenFOAM: The Open Source CFD Toolbox
   \\    /   O peration     | Website:  https://openfoam.org
    \\  /    A nd           | Version:  dev
     \\/     M anipulation  |
\*---------------------------------------------------------------------------*/
FoamFile
{
    format      ascii;
    class       volVectorField;
    location    "0.225972";
    object      U;
}
// * * * * * * * * * * * * * * * * * * * * * * * * * * * * * * * * * * * * * //

dimensions      [0 1 -1 0 0 0 0];

internalField   nonuniform List<vector> 
100
(
(0.0314479 0 0)
(0.0831578 0 0)
(0.127861 0 0)
(0.169919 0 0)
(0.211458 0 0)
(0.253106 0 0)
(0.294911 0 0)
(0.336795 0 0)
(0.3787 0 0)
(0.420606 0 0)
(0.462512 0 0)
(0.504421 0 0)
(0.546334 0 0)
(0.588256 0 0)
(0.63019 0 0)
(0.67214 0 0)
(0.714115 0 0)
(0.75612 0 0)
(0.798165 0 0)
(0.840256 0 0)
(0.882401 0 0)
(0.924604 0 0)
(0.966868 0 0)
(1.0092 0 0)
(1.05158 0 0)
(1.09403 0 0)
(1.13652 0 0)
(1.17904 0 0)
(1.22156 0 0)
(1.26407 0 0)
(1.30653 0 0)
(1.34888 0 0)
(1.39109 0 0)
(1.43309 0 0)
(1.4748 0 0)
(1.51616 0 0)
(1.55706 0 0)
(1.59743 0 0)
(1.63716 0 0)
(1.67617 0 0)
(1.71433 0 0)
(1.75155 0 0)
(1.78768 0 0)
(1.8226 0 0)
(1.8562 0 0)
(1.88838 0 0)
(1.91906 0 0)
(1.94817 0 0)
(1.97565 0 0)
(2.00145 0 0)
(2.0255 0 0)
(2.04773 0 0)
(2.06811 0 0)
(2.08656 0 0)
(2.10306 0 0)
(2.11757 0 0)
(2.13006 0 0)
(2.14053 0 0)
(2.14897 0 0)
(2.15539 0 0)
(2.15982 0 0)
(2.16228 0 0)
(2.16284 0 0)
(2.16158 0 0)
(2.15863 0 0)
(2.15423 0 0)
(2.14863 0 0)
(2.14203 0 0)
(2.13459 0 0)
(2.1263 0 0)
(2.11694 0 0)
(2.10595 0 0)
(2.09242 0 0)
(2.07503 0 0)
(2.05233 0 0)
(2.02304 0 0)
(1.98655 0 0)
(1.94343 0 0)
(1.89536 0 0)
(1.84602 0 0)
(1.80012 0 0)
(1.75951 0 0)
(1.73265 0 0)
(1.73629 0 0)
(1.77121 0 0)
(1.80914 0 0)
(1.82477 0 0)
(1.84028 0 0)
(1.95222 0 0)
(2.12186 0 0)
(2.22836 0 0)
(2.50608 0 0)
(2.9891 0 0)
(4.18163 0 0)
(4.58321 0 0)
(4.62766 0 0)
(4.61636 0 0)
(4.78323 0 0)
(4.1237 0 0)
(6.96051 0 0)
)
;

boundaryField
{
    frontHeated
    {
        type            noSlip;
    }
    backOutlet
    {
        type            pressureInletOutletVelocity;
        value           uniform (6.96051 0 0);
    }
    defaultFaces
    {
        type            empty;
    }
}


// ************************************************************************* //
