/*--------------------------------*- C++ -*----------------------------------*\
  =========                 |
  \\      /  F ield         | OpenFOAM: The Open Source CFD Toolbox
   \\    /   O peration     | Website:  https://openfoam.org
    \\  /    A nd           | Version:  dev
     \\/     M anipulation  |
\*---------------------------------------------------------------------------*/
FoamFile
{
    format      ascii;
    class       volScalarField;
    location    "0.211893";
    object      thermo:rho;
}
// * * * * * * * * * * * * * * * * * * * * * * * * * * * * * * * * * * * * * //

dimensions      [1 -3 0 0 0 0 0];

internalField   nonuniform List<scalar> 
100
(
0.0905661
0.104306
0.109107
0.111126
0.112096
0.112605
0.112889
0.11305
0.11314
0.113186
0.113202
0.113199
0.113183
0.113158
0.113126
0.113091
0.113053
0.113014
0.112975
0.112937
0.112901
0.112867
0.112836
0.112806
0.112779
0.112754
0.112731
0.112707
0.112684
0.112658
0.112629
0.112595
0.112553
0.112502
0.112439
0.112361
0.112265
0.112149
0.112009
0.111842
0.111646
0.111418
0.111154
0.110853
0.110511
0.110125
0.109695
0.109217
0.10869
0.108113
0.107484
0.106801
0.106064
0.105272
0.104425
0.103523
0.102565
0.101552
0.100485
0.0993646
0.0981935
0.0969738
0.0957083
0.0943997
0.0930498
0.0916592
0.090227
0.0887517
0.0872316
0.0856661
0.0840569
0.0824087
0.0807295
0.0790302
0.0773238
0.075624
0.0739444
0.0722979
0.0706954
0.0691469
0.0676654
0.0662693
0.0649707
0.0643047
0.0623946
0.0594341
0.0562861
0.0503988
326.672
870.952
913.459
933.934
954.496
963.706
955.643
954.772
956.057
955.875
928.417
828.543
)
;

boundaryField
{
    frontHeated
    {
        type            calculated;
        value           uniform 0.0562093;
    }
    backOutlet
    {
        type            calculated;
        value           uniform 828.52;
    }
    defaultFaces
    {
        type            empty;
    }
}


// ************************************************************************* //
