/*--------------------------------*- C++ -*----------------------------------*\
  =========                 |
  \\      /  F ield         | OpenFOAM: The Open Source CFD Toolbox
   \\    /   O peration     | Website:  https://openfoam.org
    \\  /    A nd           | Version:  dev
     \\/     M anipulation  |
\*---------------------------------------------------------------------------*/
FoamFile
{
    format      ascii;
    class       volScalarField;
    location    "0.232778";
    object      thermo:rho;
}
// * * * * * * * * * * * * * * * * * * * * * * * * * * * * * * * * * * * * * //

dimensions      [1 -3 0 0 0 0 0];

internalField   nonuniform List<scalar> 
100
(
0.0898348
0.105392
0.111285
0.113886
0.115174
0.115869
0.116266
0.1165
0.116641
0.116722
0.116766
0.116784
0.116784
0.116772
0.11675
0.116723
0.116691
0.116656
0.11662
0.116584
0.116548
0.116512
0.116478
0.116446
0.116416
0.116388
0.116361
0.116336
0.116313
0.11629
0.116266
0.116242
0.116216
0.116186
0.116151
0.11611
0.11606
0.115999
0.115927
0.11584
0.115736
0.115613
0.115469
0.115301
0.115108
0.114886
0.114634
0.114349
0.11403
0.113675
0.113282
0.11285
0.112376
0.11186
0.111301
0.110697
0.110048
0.109353
0.108612
0.107824
0.10699
0.106109
0.105182
0.104209
0.103192
0.102133
0.101032
0.0998905
0.0987108
0.0974936
0.0962394
0.0949486
0.0936211
0.0922571
0.0908573
0.0894233
0.0879576
0.0864643
0.0849487
0.0834177
0.0818782
0.08034
0.0788089
0.0772928
0.0758097
0.0743773
0.0729912
0.0716138
0.0701976
0.0686616
0.0671415
0.0655878
0.0638083
0.0626539
0.060125
0.0540983
366.217
531.69
531.689
460.382
)
;

boundaryField
{
    frontHeated
    {
        type            calculated;
        value           uniform 0.0562093;
    }
    backOutlet
    {
        type            calculated;
        value           uniform 460.292;
    }
    defaultFaces
    {
        type            empty;
    }
}


// ************************************************************************* //
