/*--------------------------------*- C++ -*----------------------------------*\
  =========                 |
  \\      /  F ield         | OpenFOAM: The Open Source CFD Toolbox
   \\    /   O peration     | Website:  https://openfoam.org
    \\  /    A nd           | Version:  dev
     \\/     M anipulation  |
\*---------------------------------------------------------------------------*/
FoamFile
{
    format      ascii;
    class       volScalarField;
    location    "0.145601";
    object      thermo:rho;
}
// * * * * * * * * * * * * * * * * * * * * * * * * * * * * * * * * * * * * * //

dimensions      [1 -3 0 0 0 0 0];

internalField   nonuniform List<scalar> 
100
(
0.0966303
0.10337
0.105134
0.105782
0.106061
0.106187
0.106235
0.106242
0.106223
0.106188
0.106145
0.106097
0.106048
0.106
0.105955
0.105915
0.10588
0.105851
0.105826
0.105805
0.105784
0.10576
0.105727
0.10568
0.105611
0.105512
0.105375
0.10519
0.104947
0.104639
0.104257
0.103792
0.103238
0.102588
0.101838
0.100982
0.100017
0.0989423
0.0977546
0.0964538
0.0950401
0.0935149
0.0918801
0.090139
0.0882962
0.0863577
0.0843316
0.0822285
0.0800618
0.0778502
0.0756209
0.0734165
0.0713153
0.0694417
0.0688215
0.0625782
0.0580151
134.942
857.925
906.62
934.078
949.56
958.288
963.208
965.98
967.542
968.422
968.917
969.196
969.352
969.44
969.49
969.518
969.533
969.542
969.546
969.549
969.551
969.551
969.552
969.552
969.552
969.552
969.552
969.552
969.552
969.552
969.552
969.552
969.552
969.552
969.552
969.552
969.552
969.552
969.552
969.552
969.552
969.552
969.552
)
;

boundaryField
{
    frontHeated
    {
        type            calculated;
        value           uniform 0.0597924;
    }
    backOutlet
    {
        type            calculated;
        value           uniform 969.552;
    }
    defaultFaces
    {
        type            empty;
    }
}


// ************************************************************************* //
