/*--------------------------------*- C++ -*----------------------------------*\
  =========                 |
  \\      /  F ield         | OpenFOAM: The Open Source CFD Toolbox
   \\    /   O peration     | Website:  https://openfoam.org
    \\  /    A nd           | Version:  dev
     \\/     M anipulation  |
\*---------------------------------------------------------------------------*/
FoamFile
{
    format      ascii;
    class       volVectorField;
    location    "0.145601";
    object      U;
}
// * * * * * * * * * * * * * * * * * * * * * * * * * * * * * * * * * * * * * //

dimensions      [0 1 -1 0 0 0 0];

internalField   nonuniform List<vector> 
100
(
(0.0510145 0 0)
(0.125925 0 0)
(0.196863 0 0)
(0.269021 0 0)
(0.34137 0 0)
(0.413311 0 0)
(0.485085 0 0)
(0.556893 0 0)
(0.628747 0 0)
(0.700621 0 0)
(0.772511 0 0)
(0.844428 0 0)
(0.916374 0 0)
(0.988351 0 0)
(1.06036 0 0)
(1.1324 0 0)
(1.20447 0 0)
(1.27658 0 0)
(1.34873 0 0)
(1.42093 0 0)
(1.49317 0 0)
(1.56548 0 0)
(1.63786 0 0)
(1.71031 0 0)
(1.78284 0 0)
(1.85547 0 0)
(1.92819 0 0)
(2.00101 0 0)
(2.07394 0 0)
(2.14698 0 0)
(2.22013 0 0)
(2.2934 0 0)
(2.3668 0 0)
(2.44033 0 0)
(2.51399 0 0)
(2.58779 0 0)
(2.66174 0 0)
(2.73583 0 0)
(2.81009 0 0)
(2.88452 0 0)
(2.95912 0 0)
(3.03391 0 0)
(3.1089 0 0)
(3.18409 0 0)
(3.25948 0 0)
(3.33506 0 0)
(3.41082 0 0)
(3.4867 0 0)
(3.56257 0 0)
(3.63824 0 0)
(3.71324 0 0)
(3.78575 0 0)
(3.85844 0 0)
(3.93667 0 0)
(3.96931 0 0)
(3.99576 0 0)
(3.63034 0 0)
(4.61649 0 0)
(4.63948 0 0)
(4.63835 0 0)
(4.63283 0 0)
(4.63705 0 0)
(4.63743 0 0)
(4.63815 0 0)
(4.63861 0 0)
(4.63886 0 0)
(4.63895 0 0)
(4.63901 0 0)
(4.63904 0 0)
(4.63905 0 0)
(4.63905 0 0)
(4.63762 0 0)
(4.63542 0 0)
(4.63447 0 0)
(4.63266 0 0)
(4.629 0 0)
(4.62421 0 0)
(4.61821 0 0)
(4.61174 0 0)
(4.60554 0 0)
(4.59966 0 0)
(4.59383 0 0)
(4.5878 0 0)
(4.58147 0 0)
(4.57474 0 0)
(4.56756 0 0)
(4.55989 0 0)
(4.5517 0 0)
(4.54295 0 0)
(4.5336 0 0)
(4.52364 0 0)
(4.51303 0 0)
(4.50172 0 0)
(4.48966 0 0)
(4.47664 0 0)
(4.46382 0 0)
(4.44317 0 0)
(4.47877 0 0)
(4.16828 0 0)
(6.6209 0 0)
)
;

boundaryField
{
    frontHeated
    {
        type            noSlip;
    }
    backOutlet
    {
        type            pressureInletOutletVelocity;
        value           uniform (6.6209 0 0);
    }
    defaultFaces
    {
        type            empty;
    }
}


// ************************************************************************* //
