/*--------------------------------*- C++ -*----------------------------------*\
  =========                 |
  \\      /  F ield         | OpenFOAM: The Open Source CFD Toolbox
   \\    /   O peration     | Website:  https://openfoam.org
    \\  /    A nd           | Version:  dev
     \\/     M anipulation  |
\*---------------------------------------------------------------------------*/
FoamFile
{
    format      ascii;
    class       volScalarField;
    location    "0.139173";
    object      p;
}
// * * * * * * * * * * * * * * * * * * * * * * * * * * * * * * * * * * * * * //

dimensions      [1 -1 -2 0 0 0 0];

internalField   nonuniform List<scalar> 
100
(
11264
11264
11264
11264
11264
11264
11264
11264
11264
11264
11264
11264
11264.1
11264.1
11264.1
11264.1
11264.1
11264.1
11264.2
11264.2
11264.2
11264.2
11264.3
11264.3
11264.3
11264.4
11264.4
11264.4
11264.5
11264.5
11264.5
11264.6
11264.6
11264.7
11264.7
11264.7
11264.8
11264.8
11264.8
11264.9
11264.9
11264.9
11265
11265
11265
11265
11265.1
11265.1
11265.1
11265.1
11265.1
11265.2
11265.2
11264.7
11265.6
10978.2
11045.4
10971.9
10893.6
10841.4
10789.4
10736
10684
10632.4
10580.5
10528.8
10477.1
10425.3
10373.5
10321.6
10269.6
10217.6
10165.5
10113.3
10060.9
10008.9
10000
10000
10000
10000
10000
10000
10000
10000
10000
10000
10000
10000
10000
10000
10000
10000
10000
10000
10000
10000
10000
10000
10000
10000
)
;

boundaryField
{
    frontHeated
    {
        type            calculated;
        value           uniform 11264;
    }
    backOutlet
    {
        type            calculated;
        value           uniform 10000;
    }
    defaultFaces
    {
        type            empty;
    }
}


// ************************************************************************* //
