/*--------------------------------*- C++ -*----------------------------------*\
  =========                 |
  \\      /  F ield         | OpenFOAM: The Open Source CFD Toolbox
   \\    /   O peration     | Website:  https://openfoam.org
    \\  /    A nd           | Version:  dev
     \\/     M anipulation  |
\*---------------------------------------------------------------------------*/
FoamFile
{
    format      ascii;
    class       volScalarField;
    location    "0.0297396";
    object      p;
}
// * * * * * * * * * * * * * * * * * * * * * * * * * * * * * * * * * * * * * //

dimensions      [1 -1 -2 0 0 0 0];

internalField   nonuniform List<scalar> 
100
(
64373
64373
64373
64372.9
64372.9
64372.8
64372.7
64372.5
64372.4
64372.2
64372
64371.9
64371.5
64330.6
63760.2
63162
62594
62004.3
61396.7
60782.3
60156.2
59514.9
58861.9
58200.3
57533
56862.1
56189.2
55515.2
54840.6
54165.6
53490.5
52815.2
52139.9
51464.6
50789.2
50113.9
49438.5
48763.1
48087.8
47412.4
46737
46061.7
45386.3
44710.9
44035.6
43360.2
42684.8
42009.5
41334.1
40658.7
39983.4
39308
38632.6
37957.3
37281.9
36606.5
35931.2
35255.8
34580.4
33905.1
33229.7
32554.3
31879
31203.6
30528.2
29852.9
29177.5
28502.1
27826.8
27151.4
26476
25800.7
25125.3
24449.9
23774.6
23099.2
22423.8
21748.5
21073.1
20397.7
19722.4
19047
18371.6
17696.1
17020.5
16344.4
15667.9
14989
14303
13607.6
12898.4
12172.4
11277.8
10000
10000
10000
10000
10000
10000
10000
)
;

boundaryField
{
    frontHeated
    {
        type            calculated;
        value           uniform 64373;
    }
    backOutlet
    {
        type            calculated;
        value           uniform 10000;
    }
    defaultFaces
    {
        type            empty;
    }
}


// ************************************************************************* //
