/*--------------------------------*- C++ -*----------------------------------*\
  =========                 |
  \\      /  F ield         | OpenFOAM: The Open Source CFD Toolbox
   \\    /   O peration     | Website:  https://openfoam.org
    \\  /    A nd           | Version:  dev
     \\/     M anipulation  |
\*---------------------------------------------------------------------------*/
FoamFile
{
    format      ascii;
    class       volScalarField;
    location    "0.0517008";
    object      p;
}
// * * * * * * * * * * * * * * * * * * * * * * * * * * * * * * * * * * * * * //

dimensions      [1 -1 -2 0 0 0 0];

internalField   nonuniform List<scalar> 
100
(
40608
40608
40608
40608
40608
40608
40607.9
40607.9
40607.8
40607.7
40607.6
40607.5
40607.4
40607.3
40607.2
40607
40606.8
40606.6
40606.4
40600.4
40142.2
39695.6
39296.4
38896.5
38489.2
38082.2
37674.2
37264.1
36851.7
36436.6
36018.1
35596
35170.2
34740.9
34308.5
33873.5
33436.6
32998.2
32558.8
32118.7
31678.1
31237.1
30796
30354.7
29913.3
29471.8
29030.3
28588.8
28147.3
27705.8
27264.2
26822.7
26381.1
25939.6
25498
25056.5
24614.9
24173.4
23731.8
23290.3
22848.8
22407.2
21965.7
21524.1
21082.6
20641
20199.5
19757.9
19316.4
18874.8
18433.3
17991.7
17550.2
17108.6
16667.1
16225.5
15784
15342.5
14900.9
14459.4
14017.8
13576.3
13134.7
12693.2
12251.6
11810
11368.2
10925.8
10484.1
10024
10000
10000
10000
10000
10000
10000
10000
10000
10000
10000
)
;

boundaryField
{
    frontHeated
    {
        type            calculated;
        value           uniform 40608;
    }
    backOutlet
    {
        type            calculated;
        value           uniform 10000;
    }
    defaultFaces
    {
        type            empty;
    }
}


// ************************************************************************* //
