/*--------------------------------*- C++ -*----------------------------------*\
  =========                 |
  \\      /  F ield         | OpenFOAM: The Open Source CFD Toolbox
   \\    /   O peration     | Website:  https://openfoam.org
    \\  /    A nd           | Version:  dev
     \\/     M anipulation  |
\*---------------------------------------------------------------------------*/
FoamFile
{
    format      ascii;
    class       volScalarField;
    location    "4.246811";
    object      p_rgh;
}
// * * * * * * * * * * * * * * * * * * * * * * * * * * * * * * * * * * * * * //

dimensions      [1 -1 -2 0 0 0 0];

internalField   nonuniform List<scalar> 
100
(
100003
100003
100003
100003
100003
100003
100003
100003
100003
100003
102100
104736
104756
104756
104756
104756
104756
104756
104756
104756
104756
104756
104756
104756
104756
104756
104756
104756
104756
104756
104756
104756
104756
104756
104756
104756
104756
104756
104756
104756
104756
104756
104756
104756
104756
104756
104756
104756
104756
104756
104756
104756
104756
104756
104756
104756
104756
104756
104756
104756
104756
104756
104756
104756
104756
104756
104756
104756
104756
104756
104756
104756
104756
104756
104756
104756
104756
104756
104756
104756
104756
104756
104756
104756
104756
104756
104756
104756
104756
104756
104756
104756
104756
104756
104756
104756
104756
104756
104756
104709
)
;

boundaryField
{
    frontHeated
    {
        type            fixedFluxPressure;
        gradient        uniform -5.32517;
        value           uniform 100003;
    }
    backOutlet
    {
        type            prghTotalPressure;
        rho             thermo:rho;
        psi             none;
        gamma           1;
        p0              uniform 100000;
        value           uniform 104709;
        rho             thermo:rho;
    }
    defaultFaces
    {
        type            empty;
    }
}


// ************************************************************************* //
