/*--------------------------------*- C++ -*----------------------------------*\
  =========                 |
  \\      /  F ield         | OpenFOAM: The Open Source CFD Toolbox
   \\    /   O peration     | Website:  https://openfoam.org
    \\  /    A nd           | Version:  dev
     \\/     M anipulation  |
\*---------------------------------------------------------------------------*/
FoamFile
{
    format      ascii;
    class       volScalarField;
    location    "4.246811";
    object      thermo:rho;
}
// * * * * * * * * * * * * * * * * * * * * * * * * * * * * * * * * * * * * * //

dimensions      [1 -3 0 0 0 0 0];

internalField   nonuniform List<scalar> 
100
(
0.567523
0.569843
0.570365
0.570308
0.569839
0.568761
0.565841
0.562907
0.562542
0.562132
428.118
965.517
969.553
969.553
969.553
969.553
969.553
969.553
969.553
969.553
969.553
969.553
969.553
969.553
969.553
969.553
969.553
969.553
969.553
969.553
969.553
969.553
969.553
969.553
969.553
969.553
969.553
969.553
969.553
969.553
969.553
969.553
969.553
969.553
969.553
969.553
969.553
969.553
969.553
969.553
969.553
969.553
969.553
969.553
969.553
969.553
969.553
969.553
969.553
969.553
969.553
969.553
969.553
969.553
969.553
969.553
969.553
969.553
969.553
969.553
969.553
969.553
969.553
969.553
969.553
969.553
969.553
969.553
969.553
969.553
969.553
969.553
969.553
969.553
969.553
969.553
969.553
969.553
969.553
969.553
969.553
969.553
969.553
969.553
969.553
969.553
969.553
969.553
969.552
960.062
)
;

boundaryField
{
    frontHeated
    {
        type            calculated;
        value           uniform 0.562095;
    }
    backOutlet
    {
        type            calculated;
        value           uniform 960.062;
    }
    defaultFaces
    {
        type            empty;
    }
}


// ************************************************************************* //
