/*--------------------------------*- C++ -*----------------------------------*\
  =========                 |
  \\      /  F ield         | OpenFOAM: The Open Source CFD Toolbox
   \\    /   O peration     | Website:  https://openfoam.org
    \\  /    A nd           | Version:  dev
     \\/     M anipulation  |
\*---------------------------------------------------------------------------*/
FoamFile
{
    format      ascii;
    class       volScalarField;
    location    "0.240663";
    object      T;
}
// * * * * * * * * * * * * * * * * * * * * * * * * * * * * * * * * * * * * * //

dimensions      [0 0 0 1 0 0 0];

internalField   nonuniform List<scalar> 
100
(
241.717
204.755
193.22
188.445
186.137
184.906
184.202
183.784
183.53
183.378
183.292
183.249
183.237
183.247
183.272
183.308
183.352
183.401
183.454
183.508
183.562
183.616
183.668
183.718
183.765
183.81
183.851
183.89
183.927
183.962
183.996
184.03
184.066
184.106
184.15
184.201
184.262
184.334
184.421
184.526
184.652
184.801
184.978
185.185
185.426
185.706
186.026
186.392
186.806
187.272
187.794
188.375
189.02
189.73
190.511
191.366
192.297
193.31
194.407
195.591
196.868
198.24
199.711
201.284
202.964
204.754
206.656
208.674
210.811
213.071
215.458
217.976
220.631
223.431
226.383
229.496
232.777
236.234
239.872
243.696
247.705
251.897
256.267
260.806
265.495
270.306
275.211
280.194
285.31
290.62
296.135
301.903
307.998
314.467
321.374
329.114
339.094
385.059
385.093
381.366
)
;

boundaryField
{
    frontHeated
    {
        type            fixedValue;
        value           uniform 385.15;
    }
    backOutlet
    {
        type            fixedValue;
        value           uniform 385.15;
    }
    defaultFaces
    {
        type            empty;
    }
}


// ************************************************************************* //
