/*--------------------------------*- C++ -*----------------------------------*\
  =========                 |
  \\      /  F ield         | OpenFOAM: The Open Source CFD Toolbox
   \\    /   O peration     | Website:  https://openfoam.org
    \\  /    A nd           | Version:  dev
     \\/     M anipulation  |
\*---------------------------------------------------------------------------*/
FoamFile
{
    format      ascii;
    class       volVectorField;
    location    "0.240663";
    object      U;
}
// * * * * * * * * * * * * * * * * * * * * * * * * * * * * * * * * * * * * * //

dimensions      [0 1 -1 0 0 0 0];

internalField   nonuniform List<vector> 
100
(
(0.0288921 0 0)
(0.077422 0 0)
(0.11914 0 0)
(0.157904 0 0)
(0.195898 0 0)
(0.233911 0 0)
(0.272092 0 0)
(0.310394 0 0)
(0.348754 0 0)
(0.387134 0 0)
(0.42552 0 0)
(0.463909 0 0)
(0.502302 0 0)
(0.5407 0 0)
(0.579105 0 0)
(0.617521 0 0)
(0.655953 0 0)
(0.694406 0 0)
(0.732887 0 0)
(0.771404 0 0)
(0.809962 0 0)
(0.848569 0 0)
(0.887228 0 0)
(0.925944 0 0)
(0.964718 0 0)
(1.00355 0 0)
(1.04243 0 0)
(1.08136 0 0)
(1.12033 0 0)
(1.15931 0 0)
(1.19828 0 0)
(1.23723 0 0)
(1.2761 0 0)
(1.31487 0 0)
(1.35348 0 0)
(1.39187 0 0)
(1.42997 0 0)
(1.46773 0 0)
(1.50504 0 0)
(1.54184 0 0)
(1.57802 0 0)
(1.61351 0 0)
(1.6482 0 0)
(1.68199 0 0)
(1.71477 0 0)
(1.74643 0 0)
(1.77685 0 0)
(1.80594 0 0)
(1.83361 0 0)
(1.85978 0 0)
(1.88439 0 0)
(1.90739 0 0)
(1.92871 0 0)
(1.94831 0 0)
(1.96614 0 0)
(1.98215 0 0)
(1.9963 0 0)
(2.00856 0 0)
(2.0189 0 0)
(2.02731 0 0)
(2.03378 0 0)
(2.0383 0 0)
(2.0409 0 0)
(2.0416 0 0)
(2.04043 0 0)
(2.03745 0 0)
(2.03273 0 0)
(2.02637 0 0)
(2.01852 0 0)
(2.00933 0 0)
(1.99899 0 0)
(1.98763 0 0)
(1.97535 0 0)
(1.96215 0 0)
(1.94788 0 0)
(1.93221 0 0)
(1.91461 0 0)
(1.89433 0 0)
(1.87055 0 0)
(1.8425 0 0)
(1.80961 0 0)
(1.77204 0 0)
(1.73076 0 0)
(1.68696 0 0)
(1.64215 0 0)
(1.59963 0 0)
(1.56569 0 0)
(1.54744 0 0)
(1.54312 0 0)
(1.54433 0 0)
(1.54827 0 0)
(1.5611 0 0)
(1.59521 0 0)
(1.64596 0 0)
(1.65644 0 0)
(1.66257 0 0)
(1.60812 0 0)
(4.54052 0 0)
(2.43524 0 0)
(15.0759 0 0)
)
;

boundaryField
{
    frontHeated
    {
        type            noSlip;
    }
    backOutlet
    {
        type            pressureInletOutletVelocity;
        value           uniform (15.0759 0 0);
    }
    defaultFaces
    {
        type            empty;
    }
}


// ************************************************************************* //
