/*--------------------------------*- C++ -*----------------------------------*\
  =========                 |
  \\      /  F ield         | OpenFOAM: The Open Source CFD Toolbox
   \\    /   O peration     | Website:  https://openfoam.org
    \\  /    A nd           | Version:  dev
     \\/     M anipulation  |
\*---------------------------------------------------------------------------*/
FoamFile
{
    format      ascii;
    class       volScalarField;
    location    "0.0012";
    object      p;
}
// * * * * * * * * * * * * * * * * * * * * * * * * * * * * * * * * * * * * * //

dimensions      [1 -1 -2 0 0 0 0];

internalField   nonuniform List<scalar> 
100
(
99735.7
99735.6
99735.4
99735
99734.6
99734.1
99733.5
99732.8
99731.9
99730.5
99663.8
98922.3
97795.2
96677.2
95567.8
94458.6
93349.2
92239.9
91130.5
90021.1
88911.8
87802.4
86693.1
85583.7
84474.3
83365
82255.6
81146.2
80036.9
78927.5
77818.2
76708.8
75599.4
74490.1
73380.7
72271.3
71162
70052.6
68943.2
67833.9
66724.5
65615.2
64505.8
63396.4
62287.1
61177.7
60068.3
58959
57849.6
56740.2
55630.9
54521.5
53412.2
52302.8
51193.4
50084.1
48974.7
47865.3
46756
45646.6
44537.2
43427.9
42318.5
41209.2
40099.8
38990.4
37881.1
36771.7
35662.3
34553
33443.6
32334.3
31224.9
30115.5
29006.2
27896.8
26787.4
25678.1
24568.7
23459.3
22350
21240.6
20131.3
19021.9
17912.5
16803.2
15693.8
14584.7
13475.9
12366.8
11229.5
10034.8
10000
10000
10000
10000
10000
10000
10000
10000
)
;

boundaryField
{
    frontHeated
    {
        type            calculated;
        value           uniform 99735.7;
    }
    backOutlet
    {
        type            calculated;
        value           uniform 10000;
    }
    defaultFaces
    {
        type            empty;
    }
}


// ************************************************************************* //
