/*--------------------------------*- C++ -*----------------------------------*\
  =========                 |
  \\      /  F ield         | OpenFOAM: The Open Source CFD Toolbox
   \\    /   O peration     | Website:  https://openfoam.org
    \\  /    A nd           | Version:  dev
     \\/     M anipulation  |
\*---------------------------------------------------------------------------*/
FoamFile
{
    format      ascii;
    class       volVectorField;
    location    "0.0012";
    object      U;
}
// * * * * * * * * * * * * * * * * * * * * * * * * * * * * * * * * * * * * * //

dimensions      [0 1 -1 0 0 0 0];

internalField   nonuniform List<vector> 
100
(
(0.00502378 0 0)
(0.0132564 0 0)
(0.0225048 0 0)
(0.0315575 0 0)
(0.0406091 0 0)
(0.0495653 0 0)
(0.0580165 0 0)
(0.0692447 0 0)
(0.11243 0 0)
(0.0900524 0 0)
(0.00607512 0 0)
(-0.000531211 0 0)
(-0.000287472 0 0)
(-0.00015598 0 0)
(-0.000166238 0 0)
(-0.000170762 0 0)
(-0.000173378 0 0)
(-0.000175604 0 0)
(-0.000177505 0 0)
(-0.000179128 0 0)
(-0.000180513 0 0)
(-0.000181697 0 0)
(-0.000182707 0 0)
(-0.00018357 0 0)
(-0.000184307 0 0)
(-0.000184936 0 0)
(-0.000185473 0 0)
(-0.000185931 0 0)
(-0.000186323 0 0)
(-0.000186657 0 0)
(-0.000186943 0 0)
(-0.000187187 0 0)
(-0.000187395 0 0)
(-0.000187573 0 0)
(-0.000187725 0 0)
(-0.000187854 0 0)
(-0.000187965 0 0)
(-0.000188059 0 0)
(-0.00018814 0 0)
(-0.000188209 0 0)
(-0.000188268 0 0)
(-0.000188318 0 0)
(-0.000188361 0 0)
(-0.000188398 0 0)
(-0.000188429 0 0)
(-0.000188456 0 0)
(-0.000188478 0 0)
(-0.000188498 0 0)
(-0.000188514 0 0)
(-0.000188529 0 0)
(-0.000188541 0 0)
(-0.000188551 0 0)
(-0.00018856 0 0)
(-0.000188568 0 0)
(-0.000188574 0 0)
(-0.000188579 0 0)
(-0.000188584 0 0)
(-0.000188588 0 0)
(-0.000188592 0 0)
(-0.000188595 0 0)
(-0.000188597 0 0)
(-0.000188599 0 0)
(-0.000188601 0 0)
(-0.000188603 0 0)
(-0.000188604 0 0)
(-0.000188605 0 0)
(-0.000188606 0 0)
(-0.000188607 0 0)
(-0.000188608 0 0)
(-0.000188608 0 0)
(-0.000188609 0 0)
(-0.000188609 0 0)
(-0.000188609 0 0)
(-0.00018861 0 0)
(-0.00018861 0 0)
(-0.00018861 0 0)
(-0.00018861 0 0)
(-0.000188611 0 0)
(-0.000188611 0 0)
(-0.000188611 0 0)
(-0.000188611 0 0)
(-0.000188611 0 0)
(-0.000188611 0 0)
(-0.000188611 0 0)
(-0.000188611 0 0)
(-0.000188611 0 0)
(-0.000188611 0 0)
(-0.000188611 0 0)
(-0.000188611 0 0)
(-0.000188612 0 0)
(-0.000188612 0 0)
(-0.000188612 0 0)
(-0.000188612 0 0)
(-0.000188612 0 0)
(-0.00018861 0 0)
(-0.000188622 0 0)
(-0.000188591 0 0)
(-0.000188637 0 0)
(-0.000188573 0 0)
(-0.000188637 0 0)
)
;

boundaryField
{
    frontHeated
    {
        type            noSlip;
    }
    backOutlet
    {
        type            pressureInletOutletVelocity;
        value           uniform (-0.000188637 0 0);
    }
    defaultFaces
    {
        type            empty;
    }
}


// ************************************************************************* //
