/*--------------------------------*- C++ -*----------------------------------*\
  =========                 |
  \\      /  F ield         | OpenFOAM: The Open Source CFD Toolbox
   \\    /   O peration     | Website:  https://openfoam.org
    \\  /    A nd           | Version:  dev
     \\/     M anipulation  |
\*---------------------------------------------------------------------------*/
FoamFile
{
    format      ascii;
    class       volScalarField;
    location    "0.217194";
    object      rhoSmear;
}
// * * * * * * * * * * * * * * * * * * * * * * * * * * * * * * * * * * * * * //

dimensions      [1 -3 -1 0 0 0 0];

internalField   nonuniform List<scalar> 
100
(
5.23458e-19
5.81619e-19
7.04406e-19
9.05459e-19
1.20712e-18
1.6429e-18
2.26123e-18
3.13081e-18
4.34826e-18
6.04884e-18
8.42152e-18
1.17299e-17
1.63417e-17
2.27691e-17
3.17265e-17
4.4209e-17
6.16037e-17
8.58432e-17
1.19621e-16
1.6669e-16
2.3228e-16
3.23678e-16
4.51041e-16
6.2852e-16
8.75834e-16
1.22046e-15
1.7007e-15
2.3699e-15
3.30243e-15
4.60189e-15
6.41267e-15
8.93598e-15
1.24522e-14
1.73519e-14
2.41797e-14
3.36941e-14
4.69522e-14
6.54273e-14
9.11721e-14
1.27047e-13
1.77038e-13
2.46701e-13
3.43774e-13
4.79045e-13
6.67543e-13
9.30212e-13
1.29624e-12
1.80629e-12
2.51704e-12
3.50747e-12
4.88761e-12
6.81082e-12
9.49078e-12
1.32253e-11
1.84293e-11
2.56809e-11
3.5786e-11
4.98674e-11
6.94895e-11
9.68327e-11
1.34935e-10
1.8803e-10
2.62018e-10
3.65118e-10
5.08787e-10
7.08989e-10
9.87966e-10
1.37672e-09
1.91844e-09
2.67332e-09
3.72523e-09
5.19106e-09
7.23368e-09
1.008e-08
1.40464e-08
1.95735e-08
2.72754e-08
3.80079e-08
5.29635e-08
7.38039e-08
1.02845e-07
1.43313e-07
1.99705e-07
2.78286e-07
3.87787e-07
5.40377e-07
7.53008e-07
1.04931e-06
1.46219e-06
2.03755e-06
0
0
0
0
0
0
0
0
0
0
)
;

boundaryField
{
    frontHeated
    {
        type            zeroGradient;
    }
    backOutlet
    {
        type            zeroGradient;
    }
    defaultFaces
    {
        type            empty;
    }
}


// ************************************************************************* //
