/*--------------------------------*- C++ -*----------------------------------*\
  =========                 |
  \\      /  F ield         | OpenFOAM: The Open Source CFD Toolbox
   \\    /   O peration     | Website:  https://openfoam.org
    \\  /    A nd           | Version:  dev
     \\/     M anipulation  |
\*---------------------------------------------------------------------------*/
FoamFile
{
    format      ascii;
    class       volScalarField;
    location    "0.0154991";
    object      p;
}
// * * * * * * * * * * * * * * * * * * * * * * * * * * * * * * * * * * * * * //

dimensions      [1 -1 -2 0 0 0 0];

internalField   nonuniform List<scalar> 
100
(
85241.5
85241.5
85241.4
85241.3
85241.2
85241
85240.7
85240.4
85240
85239.7
85239.3
85235
84271.7
83293.1
82483.4
81657
80790.7
79911.1
79031.5
78151.6
77271.1
76390.6
75510
74629.4
73748.7
72868.1
71987.5
71106.9
70226.3
69345.7
68465.1
67584.5
66703.9
65823.3
64942.7
64062.1
63181.4
62300.8
61420.2
60539.6
59659
58778.4
57897.8
57017.2
56136.6
55256
54375.4
53494.7
52614.1
51733.5
50852.9
49972.3
49091.7
48211.1
47330.5
46449.9
45569.3
44688.7
43808
42927.4
42046.8
41166.2
40285.6
39405
38524.4
37643.8
36763.2
35882.6
35001.9
34121.3
33240.7
32360.1
31479.5
30598.9
29718.3
28837.7
27957.1
27076.5
26195.8
25315.2
24434.6
23554
22673.4
21793
20912.1
20028.8
19136.9
18206.9
17188.9
16006.8
14105.7
10717.2
10000
10000
10000
10000
10000
10000
10000
10000
)
;

boundaryField
{
    frontHeated
    {
        type            calculated;
        value           uniform 85241.5;
    }
    backOutlet
    {
        type            calculated;
        value           uniform 10000;
    }
    defaultFaces
    {
        type            empty;
    }
}


// ************************************************************************* //
