/*--------------------------------*- C++ -*----------------------------------*\
  =========                 |
  \\      /  F ield         | OpenFOAM: The Open Source CFD Toolbox
   \\    /   O peration     | Website:  https://openfoam.org
    \\  /    A nd           | Version:  dev
     \\/     M anipulation  |
\*---------------------------------------------------------------------------*/
FoamFile
{
    format      ascii;
    class       volScalarField;
    location    "0.0154991";
    object      rhoSmear;
}
// * * * * * * * * * * * * * * * * * * * * * * * * * * * * * * * * * * * * * //

dimensions      [1 -3 -1 0 0 0 0];

internalField   nonuniform List<scalar> 
100
(
4.81677e-06
5.35197e-06
6.48183e-06
8.3319e-06
1.11077e-05
1.51178e-05
2.08075e-05
2.88092e-05
4.0012e-05
5.56605e-05
7.74935e-05
0
0
0
0
-7.73683e-05
-5.55214e-05
-3.98435e-05
-2.85927e-05
-2.05188e-05
-1.47248e-05
-1.05669e-05
-7.58304e-06
-5.44177e-06
-3.90515e-06
-2.80243e-06
-2.01109e-06
-1.44321e-06
-1.03568e-06
-7.4323e-07
-5.3336e-07
-3.82752e-07
-2.74672e-07
-1.97111e-07
-1.41452e-07
-1.01509e-07
-7.28456e-08
-5.22758e-08
-3.75144e-08
-2.69212e-08
-1.93193e-08
-1.3864e-08
-9.94915e-09
-7.13975e-09
-5.12366e-09
-3.67686e-09
-2.63861e-09
-1.89353e-09
-1.35884e-09
-9.75138e-10
-6.99783e-10
-5.02181e-10
-3.60377e-10
-2.58615e-10
-1.85589e-10
-1.33183e-10
-9.55754e-11
-6.85872e-11
-4.92198e-11
-3.53214e-11
-2.53475e-11
-1.819e-11
-1.30536e-11
-9.36755e-12
-6.72238e-12
-4.82414e-12
-3.46192e-12
-2.48436e-12
-1.78284e-12
-1.27941e-12
-9.18134e-13
-6.58875e-13
-4.72825e-13
-3.3931e-13
-2.43497e-13
-1.7474e-13
-1.25397e-13
-8.99883e-14
-6.45778e-14
-4.63426e-14
-3.32566e-14
-2.38658e-14
-1.71268e-14
-1.22907e-14
-8.82024e-15
-6.32982e-15
-4.54272e-15
-3.26036e-15
-2.34026e-15
-1.6802e-15
-1.20682e-15
-8.67531e-16
-6.24635e-16
-4.51144e-16
-3.2778e-16
-2.40835e-16
-1.8065e-16
-1.40538e-16
-1.1604e-16
-1.04436e-16
)
;

boundaryField
{
    frontHeated
    {
        type            zeroGradient;
    }
    backOutlet
    {
        type            zeroGradient;
    }
    defaultFaces
    {
        type            empty;
    }
}


// ************************************************************************* //
