/*--------------------------------*- C++ -*----------------------------------*\
  =========                 |
  \\      /  F ield         | OpenFOAM: The Open Source CFD Toolbox
   \\    /   O peration     | Website:  https://openfoam.org
    \\  /    A nd           | Version:  dev
     \\/     M anipulation  |
\*---------------------------------------------------------------------------*/
FoamFile
{
    format      ascii;
    class       volScalarField;
    location    "0.0743385";
    object      rhoSmear;
}
// * * * * * * * * * * * * * * * * * * * * * * * * * * * * * * * * * * * * * //

dimensions      [1 -3 -1 0 0 0 0];

internalField   nonuniform List<scalar> 
100
(
2.58168e-08
2.86853e-08
3.47411e-08
4.4657e-08
5.95347e-08
8.10275e-08
1.11523e-07
1.54411e-07
2.14455e-07
2.98327e-07
4.15347e-07
5.78516e-07
8.05965e-07
1.12297e-06
1.56474e-06
2.18037e-06
3.03827e-06
4.23376e-06
5.89966e-06
8.22108e-06
1.1456e-05
1.59637e-05
2.22452e-05
3.09984e-05
4.31959e-05
6.01929e-05
8.3878e-05
0
0
0
0
0
0
0
0
0
0
-8.3878e-05
-6.01929e-05
-4.31959e-05
-3.09984e-05
-2.22452e-05
-1.59637e-05
-1.14559e-05
-8.22106e-06
-5.89963e-06
-4.23372e-06
-3.03822e-06
-2.1803e-06
-1.56464e-06
-1.12282e-06
-8.05764e-07
-5.78236e-07
-4.14956e-07
-2.97783e-07
-2.13696e-07
-1.53353e-07
-1.1005e-07
-7.89747e-08
-5.66741e-08
-4.06707e-08
-2.91863e-08
-2.09448e-08
-1.50305e-08
-1.07863e-08
-7.74048e-09
-5.55475e-09
-3.98623e-09
-2.86061e-09
-2.05285e-09
-1.47317e-09
-1.05718e-09
-7.58661e-10
-5.44433e-10
-3.90699e-10
-2.80375e-10
-2.01204e-10
-1.44389e-10
-1.03617e-10
-7.43581e-11
-5.33612e-11
-3.82934e-11
-2.74804e-11
-1.97208e-11
-1.41523e-11
-1.01564e-11
-7.28892e-12
-5.23134e-12
-3.75502e-12
-2.69592e-12
-1.93637e-12
-1.39198e-12
-1.00225e-12
-7.23873e-13
-5.25932e-13
-3.86427e-13
-2.89859e-13
-2.25497e-13
-1.8619e-13
-1.67571e-13
)
;

boundaryField
{
    frontHeated
    {
        type            zeroGradient;
    }
    backOutlet
    {
        type            zeroGradient;
    }
    defaultFaces
    {
        type            empty;
    }
}


// ************************************************************************* //
