/*--------------------------------*- C++ -*----------------------------------*\
  =========                 |
  \\      /  F ield         | OpenFOAM: The Open Source CFD Toolbox
   \\    /   O peration     | Website:  https://openfoam.org
    \\  /    A nd           | Version:  dev
     \\/     M anipulation  |
\*---------------------------------------------------------------------------*/
FoamFile
{
    format      ascii;
    class       volScalarField;
    location    "1.180882";
    object      p;
}
// * * * * * * * * * * * * * * * * * * * * * * * * * * * * * * * * * * * * * //

dimensions      [1 -1 -2 0 0 0 0];

internalField   nonuniform List<scalar> 
100
(
99969
99969
99969
99969
99969
99969
99969
99969
99969
99969
99969
99969
99969
99969.1
99969.2
99969.3
99969.5
99969.7
99970
99970.2
99970.5
99970.8
99971.1
99971.4
99971.7
99972.1
99972.4
99972.8
99973.2
99973.6
99973.9
99974.3
99974.7
99975.1
99975.5
99975.9
99976.3
99976.7
99977.2
99977.6
99978
99978.4
99978.8
99979.2
99979.7
99980.1
99980.5
99980.9
99981.3
99981.8
99982.2
99982.6
99983
99983.4
99983.9
99984.3
99984.7
99985.1
99985.5
99986
99986.4
99986.8
99987.2
99987.6
99988.1
99988.5
99988.9
99989.3
99989.7
99990.2
99990.6
99991
99991.4
99991.8
99992.2
99992.6
99993
99993.4
99993.8
99994.2
99994.6
99995
99995.4
99995.7
99996.1
99996.4
99996.8
99997.1
99997.4
99997.8
99998
99998.3
99998.6
99998.8
99999.1
99999.3
99999.5
99999.7
99999.8
100000
)
;

boundaryField
{
    frontHeated
    {
        type            calculated;
        value           uniform 99969;
    }
    backOutlet
    {
        type            calculated;
        value           uniform 100000;
    }
    defaultFaces
    {
        type            empty;
    }
}


// ************************************************************************* //
