/*--------------------------------*- C++ -*----------------------------------*\
  =========                 |
  \\      /  F ield         | OpenFOAM: The Open Source CFD Toolbox
   \\    /   O peration     | Website:  https://openfoam.org
    \\  /    A nd           | Version:  dev
     \\/     M anipulation  |
\*---------------------------------------------------------------------------*/
FoamFile
{
    format      ascii;
    class       volVectorField;
    location    "1.180882";
    object      U;
}
// * * * * * * * * * * * * * * * * * * * * * * * * * * * * * * * * * * * * * //

dimensions      [0 1 -1 0 0 0 0];

internalField   nonuniform List<vector> 
100
(
(0.000132848 0 0)
(0.000251357 0 0)
(0.000375184 0 0)
(0.000473665 0 0)
(0.000519327 0 0)
(0.000497338 0 0)
(0.000398899 0 0)
(0.000279081 0 0)
(0.000248453 0 0)
(0.000132605 0 0)
(0.000179909 0 0)
(5.94191e-05 0 0)
(-5.63295e-05 0 0)
(-0.000121771 0 0)
(-0.000163873 0 0)
(-0.000188563 0 0)
(-0.00020349 0 0)
(-0.000212396 0 0)
(-0.000218123 0 0)
(-0.000222098 0 0)
(-0.000225045 0 0)
(-0.000227328 0 0)
(-0.000229144 0 0)
(-0.00023062 0 0)
(-0.000231835 0 0)
(-0.000232846 0 0)
(-0.000233695 0 0)
(-0.000234411 0 0)
(-0.000235018 0 0)
(-0.000235535 0 0)
(-0.000235976 0 0)
(-0.000236353 0 0)
(-0.000236676 0 0)
(-0.000236952 0 0)
(-0.000237189 0 0)
(-0.000237391 0 0)
(-0.000237563 0 0)
(-0.000237711 0 0)
(-0.000237836 0 0)
(-0.000237943 0 0)
(-0.000238034 0 0)
(-0.00023811 0 0)
(-0.000238175 0 0)
(-0.000238229 0 0)
(-0.000238275 0 0)
(-0.000238313 0 0)
(-0.000238344 0 0)
(-0.00023837 0 0)
(-0.000238392 0 0)
(-0.000238409 0 0)
(-0.000238423 0 0)
(-0.000238433 0 0)
(-0.000238441 0 0)
(-0.000238446 0 0)
(-0.000238449 0 0)
(-0.00023845 0 0)
(-0.000238448 0 0)
(-0.000238445 0 0)
(-0.000238438 0 0)
(-0.00023843 0 0)
(-0.000238418 0 0)
(-0.000238403 0 0)
(-0.000238384 0 0)
(-0.000238361 0 0)
(-0.000238333 0 0)
(-0.000238298 0 0)
(-0.000238257 0 0)
(-0.000238208 0 0)
(-0.000238149 0 0)
(-0.000238079 0 0)
(-0.000237997 0 0)
(-0.000237899 0 0)
(-0.000237784 0 0)
(-0.000237649 0 0)
(-0.000237491 0 0)
(-0.000237307 0 0)
(-0.000237091 0 0)
(-0.000236841 0 0)
(-0.00023655 0 0)
(-0.000236212 0 0)
(-0.000235821 0 0)
(-0.000235368 0 0)
(-0.000234844 0 0)
(-0.000234238 0 0)
(-0.000233535 0 0)
(-0.000232722 0 0)
(-0.000231778 0 0)
(-0.000230683 0 0)
(-0.000229406 0 0)
(-0.000227921 0 0)
(-0.000226169 0 0)
(-0.00022416 0 0)
(-0.000221652 0 0)
(-0.00021925 0 0)
(-0.000215073 0 0)
(-0.0002137 0 0)
(-0.000197898 0 0)
(-0.000200481 0 0)
(-0.000147952 0 0)
(-0.000190879 0 0)
)
;

boundaryField
{
    frontHeated
    {
        type            noSlip;
    }
    backOutlet
    {
        type            pressureInletOutletVelocity;
        value           uniform (-0.000190879 0 0);
    }
    defaultFaces
    {
        type            empty;
    }
}


// ************************************************************************* //
