/*--------------------------------*- C++ -*----------------------------------*\
  =========                 |
  \\      /  F ield         | OpenFOAM: The Open Source CFD Toolbox
   \\    /   O peration     | Website:  https://openfoam.org
    \\  /    A nd           | Version:  dev
     \\/     M anipulation  |
\*---------------------------------------------------------------------------*/
FoamFile
{
    format      ascii;
    class       volScalarField;
    location    "0.091826";
    object      p;
}
// * * * * * * * * * * * * * * * * * * * * * * * * * * * * * * * * * * * * * //

dimensions      [1 -1 -2 0 0 0 0];

internalField   nonuniform List<scalar> 
100
(
20040.8
20040.8
20040.8
20040.8
20040.8
20040.8
20040.8
20040.8
20040.8
20040.7
20040.7
20040.7
20040.7
20040.7
20040.7
20040.6
20040.6
20040.6
20040.6
20040.5
20040.5
20040.5
20040.4
20040.4
20040.3
20040.3
20040.2
20040.1
20040
20039.9
20039.9
20039.8
20039.5
20039.6
20136.7
19700.4
19439
19279.9
19107.9
18927.1
18751.5
18577.2
18402.4
18227.6
18052.7
17877.5
17701.9
17525.9
17349.4
17172.3
16994.5
16816
16636.8
16457
16276.4
16095.1
15913.3
15731
15548.2
15365.1
15181.7
14998
14814.1
14630.1
14446
14261.8
14077.6
13893.3
13708.9
13524.6
13340.2
13155.8
12971.4
12787
12602.6
12418.2
12233.7
12049.3
11864.9
11680.5
11496
11311.6
11127.2
10942.8
10758.3
10573.9
10389.2
10206.3
10023.2
10000
10000
10000
10000
10000
10000
10000
10000
10000
10000
10000
)
;

boundaryField
{
    frontHeated
    {
        type            calculated;
        value           uniform 20040.8;
    }
    backOutlet
    {
        type            calculated;
        value           uniform 10000;
    }
    defaultFaces
    {
        type            empty;
    }
}


// ************************************************************************* //
