/*--------------------------------*- C++ -*----------------------------------*\
  =========                 |
  \\      /  F ield         | OpenFOAM: The Open Source CFD Toolbox
   \\    /   O peration     | Website:  https://openfoam.org
    \\  /    A nd           | Version:  dev
     \\/     M anipulation  |
\*---------------------------------------------------------------------------*/
FoamFile
{
    format      ascii;
    class       volScalarField;
    location    "0.091826";
    object      p_rgh;
}
// * * * * * * * * * * * * * * * * * * * * * * * * * * * * * * * * * * * * * //

dimensions      [1 -1 -2 0 0 0 0];

internalField   nonuniform List<scalar> 
100
(
20041.6
20041.6
20041.6
20041.6
20041.6
20041.6
20041.6
20041.6
20041.6
20041.6
20041.6
20041.5
20041.5
20041.5
20041.5
20041.5
20041.4
20041.4
20041.4
20041.4
20041.3
20041.3
20041.2
20041.2
20041.1
20041
20040.9
20040.8
20040.7
20040.6
20040.5
20040.4
20040.1
20040.1
21620
23964.7
23917.6
23879.2
23775.4
23632.9
23479.1
23317
23149.1
22978.2
22805.5
22631.5
22456.7
22281.1
22104.8
21927.8
21750.1
21571.6
21392.5
21212.6
21032
20850.8
20669
20486.6
20303.9
20120.7
19937.3
19753.7
19569.8
19385.8
19201.7
19017.5
18833.2
18648.9
18464.6
18280.2
18095.9
17911.5
17727.1
17542.6
17358.2
17173.8
16989.4
16805
16620.5
16436.1
16251.7
16067.3
15882.8
15698.4
15514
15329.5
15144.9
14962
14778.8
14755.7
14755.7
14755.7
14755.7
14755.7
14755.7
14755.7
14755.7
14755.7
14755.7
14755.7
)
;

boundaryField
{
    frontHeated
    {
        type            fixedFluxPressure;
        gradient        uniform -52.6399;
        value           uniform 20041.4;
    }
    backOutlet
    {
        type            prghTotalPressure;
        rho             thermo:rho;
        psi             none;
        gamma           1;
        p0              uniform 0;
        value           uniform 4755.66;
        rho             thermo:rho;
    }
    defaultFaces
    {
        type            empty;
    }
}


// ************************************************************************* //
