/*--------------------------------*- C++ -*----------------------------------*\
  =========                 |
  \\      /  F ield         | OpenFOAM: The Open Source CFD Toolbox
   \\    /   O peration     | Website:  https://openfoam.org
    \\  /    A nd           | Version:  dev
     \\/     M anipulation  |
\*---------------------------------------------------------------------------*/
FoamFile
{
    format      ascii;
    class       volVectorField;
    location    "0.091826";
    object      U;
}
// * * * * * * * * * * * * * * * * * * * * * * * * * * * * * * * * * * * * * //

dimensions      [0 1 -1 0 0 0 0];

internalField   nonuniform List<vector> 
100
(
(0.0749792 0 0)
(0.179805 0 0)
(0.291811 0 0)
(0.407866 0 0)
(0.523055 0 0)
(0.63741 0 0)
(0.75182 0 0)
(0.866446 0 0)
(0.981167 0 0)
(1.09592 0 0)
(1.21072 0 0)
(1.32555 0 0)
(1.44041 0 0)
(1.55532 0 0)
(1.67034 0 0)
(1.78554 0 0)
(1.90096 0 0)
(2.01664 0 0)
(2.13258 0 0)
(2.24882 0 0)
(2.36538 0 0)
(2.48227 0 0)
(2.59952 0 0)
(2.71717 0 0)
(2.83521 0 0)
(2.95371 0 0)
(3.07268 0 0)
(3.19211 0 0)
(3.31174 0 0)
(3.43233 0 0)
(3.55685 0 0)
(3.67392 0 0)
(3.65371 0 0)
(3.99976 0 0)
(4.12743 0 0)
(4.15978 0 0)
(4.17167 0 0)
(4.1688 0 0)
(4.16983 0 0)
(4.17236 0 0)
(4.17308 0 0)
(4.17342 0 0)
(4.1737 0 0)
(4.17387 0 0)
(4.17394 0 0)
(4.17398 0 0)
(4.174 0 0)
(4.17401 0 0)
(4.17402 0 0)
(4.17402 0 0)
(4.17402 0 0)
(4.17402 0 0)
(4.17402 0 0)
(4.17402 0 0)
(4.17402 0 0)
(4.17402 0 0)
(4.17402 0 0)
(4.17402 0 0)
(4.17402 0 0)
(4.17402 0 0)
(4.17402 0 0)
(4.17402 0 0)
(4.17402 0 0)
(4.17402 0 0)
(4.17402 0 0)
(4.17402 0 0)
(4.17402 0 0)
(4.17402 0 0)
(4.17402 0 0)
(4.17402 0 0)
(4.17402 0 0)
(4.17402 0 0)
(4.17402 0 0)
(4.17402 0 0)
(4.17402 0 0)
(4.17402 0 0)
(4.17402 0 0)
(4.17402 0 0)
(4.17402 0 0)
(4.17402 0 0)
(4.17402 0 0)
(4.17402 0 0)
(4.17402 0 0)
(4.17402 0 0)
(4.17403 0 0)
(4.17402 0 0)
(4.17391 0 0)
(4.17421 0 0)
(4.16218 0 0)
(4.1391 0 0)
(4.11018 0 0)
(4.06895 0 0)
(4.02016 0 0)
(3.96558 0 0)
(3.90549 0 0)
(3.83922 0 0)
(3.7568 0 0)
(3.68203 0 0)
(3.73689 0 0)
(6.12571 0 0)
)
;

boundaryField
{
    frontHeated
    {
        type            noSlip;
    }
    backOutlet
    {
        type            pressureInletOutletVelocity;
        value           uniform (6.12571 0 0);
    }
    defaultFaces
    {
        type            empty;
    }
}


// ************************************************************************* //
