/*--------------------------------*- C++ -*----------------------------------*\
  =========                 |
  \\      /  F ield         | OpenFOAM: The Open Source CFD Toolbox
   \\    /   O peration     | Website:  https://openfoam.org
    \\  /    A nd           | Version:  dev
     \\/     M anipulation  |
\*---------------------------------------------------------------------------*/
FoamFile
{
    format      ascii;
    class       volScalarField;
    location    "0.210018";
    object      rhoSmear;
}
// * * * * * * * * * * * * * * * * * * * * * * * * * * * * * * * * * * * * * //

dimensions      [1 -3 -1 0 0 0 0];

internalField   nonuniform List<scalar> 
100
(
7.36648e-17
8.18497e-17
9.91291e-17
1.27423e-16
1.69875e-16
2.31202e-16
3.18217e-16
4.40591e-16
6.11919e-16
8.51237e-16
1.18514e-15
1.65072e-15
2.29972e-15
3.20424e-15
4.46478e-15
6.22142e-15
8.66932e-15
1.20805e-14
1.68339e-14
2.34578e-14
3.26881e-14
4.55504e-14
6.34738e-14
8.84499e-14
1.23254e-13
1.71753e-13
2.39335e-13
3.3351e-13
4.64742e-13
6.47612e-13
9.02438e-13
1.25754e-12
1.75236e-12
2.44189e-12
3.40274e-12
4.74168e-12
6.60746e-12
9.20741e-12
1.28304e-11
1.7879e-11
2.49142e-11
3.47175e-11
4.83784e-11
6.74147e-11
9.39415e-11
1.30906e-10
1.82416e-10
2.54194e-10
3.54217e-10
4.93596e-10
6.8782e-10
9.58468e-10
1.33561e-09
1.86116e-09
2.5935e-09
3.61401e-09
5.03607e-09
7.0177e-09
9.77907e-09
1.3627e-08
1.89891e-08
2.6461e-08
3.6873e-08
5.13821e-08
7.16003e-08
9.97741e-08
1.39034e-07
1.93742e-07
2.69977e-07
3.76209e-07
5.24242e-07
7.30525e-07
1.01798e-06
1.41854e-06
1.97671e-06
2.75452e-06
3.83839e-06
5.34875e-06
7.45341e-06
1.03862e-05
1.44731e-05
2.0168e-05
2.81039e-05
3.91624e-05
5.45723e-05
7.60457e-05
0.000105969
0
0
0
0
0
0
0
0
0
0
-0.000375276
0
0
)
;

boundaryField
{
    frontHeated
    {
        type            zeroGradient;
    }
    backOutlet
    {
        type            zeroGradient;
    }
    defaultFaces
    {
        type            empty;
    }
}


// ************************************************************************* //
