/*--------------------------------*- C++ -*----------------------------------*\
  =========                 |
  \\      /  F ield         | OpenFOAM: The Open Source CFD Toolbox
   \\    /   O peration     | Website:  https://openfoam.org
    \\  /    A nd           | Version:  dev
     \\/     M anipulation  |
\*---------------------------------------------------------------------------*/
FoamFile
{
    format      ascii;
    class       volScalarField;
    location    "0.217116";
    object      p_rgh;
}
// * * * * * * * * * * * * * * * * * * * * * * * * * * * * * * * * * * * * * //

dimensions      [1 -1 -2 0 0 0 0];

internalField   nonuniform List<scalar> 
100
(
10000.4
10000.5
10000.5
10000.5
10000.6
10000.6
10000.6
10000.6
10000.6
10000.6
10000.6
10000.6
10000.6
10000.6
10000.6
10000.6
10000.6
10000.6
10000.6
10000.6
10000.6
10000.6
10000.6
10000.6
10000.6
10000.6
10000.6
10000.6
10000.6
10000.6
10000.6
10000.6
10000.6
10000.6
10000.6
10000.6
10000.6
10000.6
10000.6
10000.6
10000.6
10000.6
10000.6
10000.5
10000.5
10000.5
10000.5
10000.5
10000.5
10000.5
10000.5
10000.5
10000.5
10000.5
10000.5
10000.5
10000.5
10000.5
10000.5
10000.5
10000.5
10000.5
10000.5
10000.5
10000.5
10000.5
10000.5
10000.5
10000.4
10000.4
10000.4
10000.4
10000.4
10000.4
10000.4
10000.4
10000.4
10000.4
10000.4
10000.4
10000.4
10000.3
10000.3
10000.3
10000.3
10000.3
10000.3
10000.3
10000.3
10000.3
10029.9
13812.2
14530.2
14695.8
14625.4
14633.1
14638.8
14633.8
14498.3
13822.6
)
;

boundaryField
{
    frontHeated
    {
        type            fixedFluxPressure;
        gradient        uniform -33.5754;
        value           uniform 10000.3;
    }
    backOutlet
    {
        type            prghTotalPressure;
        rho             thermo:rho;
        psi             none;
        gamma           1;
        p0              uniform 0;
        value           uniform 3822.46;
        rho             thermo:rho;
    }
    defaultFaces
    {
        type            empty;
    }
}


// ************************************************************************* //
