/*--------------------------------*- C++ -*----------------------------------*\
  =========                 |
  \\      /  F ield         | OpenFOAM: The Open Source CFD Toolbox
   \\    /   O peration     | Website:  https://openfoam.org
    \\  /    A nd           | Version:  dev
     \\/     M anipulation  |
\*---------------------------------------------------------------------------*/
FoamFile
{
    format      ascii;
    class       volScalarField;
    location    "0.470981";
    object      epsilon;
}
// * * * * * * * * * * * * * * * * * * * * * * * * * * * * * * * * * * * * * //

dimensions      [0 2 -3 0 0 0 0];

internalField   nonuniform List<scalar> 
100
(
0.0430295
0.0601579
0.0555934
0.0544398
0.0567201
0.0657768
0.100833
0.326789
3.69755
23.3307
0.0756824
0.172664
0.083933
0.0685979
0.0625085
0.0590831
0.0567904
0.0551029
0.0537941
0.0527499
0.0519052
0.0512181
0.0506592
0.0502063
0.0498416
0.04955
0.0493191
0.049138
0.0489974
0.0488894
0.0488073
0.0487457
0.0486998
0.0486661
0.0486415
0.0486239
0.0486113
0.0486024
0.0485961
0.0485918
0.0485889
0.0485869
0.0485856
0.0485847
0.0485841
0.0485837
0.0485835
0.0485833
0.0485832
0.0485831
0.0485831
0.0485831
0.0485831
0.0485831
0.0485831
0.0485831
0.0485831
0.0485831
0.0485831
0.0485831
0.0485831
0.0485832
0.0485833
0.0485834
0.0485836
0.048584
0.0485845
0.0485853
0.0485864
0.0485882
0.0485909
0.0485949
0.0486008
0.0486092
0.0486215
0.048639
0.0486639
0.0486989
0.0487476
0.0488148
0.0489068
0.0490314
0.0491988
0.0494213
0.0497146
0.0500974
0.0505926
0.0512279
0.0520359
0.0530553
0.0543312
0.0559143
0.0578586
0.0602111
0.0629851
0.0660844
0.0690925
0.07069
0.0675469
0.0581522
)
;

boundaryField
{
    frontHeated
    {
        type            epsilonWallFunction;
        value           uniform 0.0430295;
    }
    backOutlet
    {
        type            inletOutlet;
        inletValue      uniform 0.1;
        value           uniform 0.0581522;
    }
    defaultFaces
    {
        type            empty;
    }
}


// ************************************************************************* //
