/*--------------------------------*- C++ -*----------------------------------*\
  =========                 |
  \\      /  F ield         | OpenFOAM: The Open Source CFD Toolbox
   \\    /   O peration     | Website:  https://openfoam.org
    \\  /    A nd           | Version:  dev
     \\/     M anipulation  |
\*---------------------------------------------------------------------------*/
FoamFile
{
    format      ascii;
    class       volVectorField;
    location    "0.470981";
    object      U;
}
// * * * * * * * * * * * * * * * * * * * * * * * * * * * * * * * * * * * * * //

dimensions      [0 1 -1 0 0 0 0];

internalField   nonuniform List<vector> 
100
(
(3.58108e-05 0 0)
(-7.18557e-06 0 0)
(-4.89713e-05 0 0)
(-8.73696e-05 0 0)
(-0.000113892 0 0)
(-0.000122205 0 0)
(-0.000106263 0 0)
(-5.35832e-05 0 0)
(0.000213394 0 0)
(0.000303139 0 0)
(0.000243538 0 0)
(0.000280756 0 0)
(0.000289478 0 0)
(0.000293935 0 0)
(0.000296215 0 0)
(0.000297747 0 0)
(0.000298538 0 0)
(0.000298945 0 0)
(0.000299204 0 0)
(0.000299354 0 0)
(0.00029946 0 0)
(0.000299538 0 0)
(0.000299597 0 0)
(0.000299642 0 0)
(0.000299677 0 0)
(0.000299704 0 0)
(0.000299725 0 0)
(0.000299741 0 0)
(0.000299753 0 0)
(0.000299762 0 0)
(0.00029977 0 0)
(0.000299775 0 0)
(0.000299779 0 0)
(0.000299782 0 0)
(0.000299784 0 0)
(0.000299786 0 0)
(0.000299787 0 0)
(0.000299788 0 0)
(0.000299788 0 0)
(0.000299789 0 0)
(0.000299789 0 0)
(0.000299789 0 0)
(0.000299789 0 0)
(0.000299789 0 0)
(0.00029979 0 0)
(0.00029979 0 0)
(0.00029979 0 0)
(0.00029979 0 0)
(0.00029979 0 0)
(0.00029979 0 0)
(0.00029979 0 0)
(0.00029979 0 0)
(0.00029979 0 0)
(0.00029979 0 0)
(0.00029979 0 0)
(0.00029979 0 0)
(0.00029979 0 0)
(0.00029979 0 0)
(0.00029979 0 0)
(0.00029979 0 0)
(0.00029979 0 0)
(0.00029979 0 0)
(0.00029979 0 0)
(0.00029979 0 0)
(0.00029979 0 0)
(0.00029979 0 0)
(0.00029979 0 0)
(0.000299789 0 0)
(0.000299789 0 0)
(0.000299789 0 0)
(0.000299789 0 0)
(0.000299789 0 0)
(0.000299788 0 0)
(0.000299787 0 0)
(0.000299787 0 0)
(0.000299785 0 0)
(0.000299784 0 0)
(0.000299781 0 0)
(0.000299778 0 0)
(0.000299774 0 0)
(0.000299768 0 0)
(0.00029976 0 0)
(0.00029975 0 0)
(0.000299736 0 0)
(0.000299718 0 0)
(0.000299693 0 0)
(0.000299661 0 0)
(0.000299618 0 0)
(0.000299559 0 0)
(0.000299479 0 0)
(0.000299363 0 0)
(0.000299195 0 0)
(0.000298931 0 0)
(0.00029852 0 0)
(0.000297834 0 0)
(0.000296729 0 0)
(0.000295241 0 0)
(0.000292781 0 0)
(0.000291185 0 0)
(0.000288212 0 0)
)
;

boundaryField
{
    frontHeated
    {
        type            noSlip;
    }
    backOutlet
    {
        type            pressureInletOutletVelocity;
        value           uniform (0.000288212 0 0);
    }
    defaultFaces
    {
        type            empty;
    }
}


// ************************************************************************* //
