/*--------------------------------*- C++ -*----------------------------------*\
  =========                 |
  \\      /  F ield         | OpenFOAM: The Open Source CFD Toolbox
   \\    /   O peration     | Website:  https://openfoam.org
    \\  /    A nd           | Version:  dev
     \\/     M anipulation  |
\*---------------------------------------------------------------------------*/
FoamFile
{
    format      ascii;
    class       volScalarField;
    location    "0.173387";
    object      rhoSmear;
}
// * * * * * * * * * * * * * * * * * * * * * * * * * * * * * * * * * * * * * //

dimensions      [1 -3 -1 0 0 0 0];

internalField   nonuniform List<scalar> 
100
(
2.53935e-14
2.8215e-14
3.41715e-14
4.39248e-14
5.85587e-14
7.96991e-14
1.09695e-13
1.51879e-13
2.10939e-13
2.93436e-13
4.08537e-13
5.69032e-13
7.92752e-13
1.10456e-12
1.53909e-12
2.14463e-12
2.98846e-12
4.16435e-12
5.80294e-12
8.0863e-12
1.12681e-11
1.5702e-11
2.18805e-11
3.04902e-11
4.24877e-11
5.9206e-11
8.25028e-11
1.14967e-10
1.60204e-10
2.23243e-10
3.11086e-10
4.33494e-10
6.04068e-10
8.41761e-10
1.17298e-09
1.63454e-09
2.2777e-09
3.17395e-09
4.42286e-09
6.1632e-09
8.58833e-09
1.19677e-08
1.66769e-08
2.3239e-08
3.23832e-08
4.51256e-08
6.2882e-08
8.76252e-08
1.22105e-07
1.70151e-07
2.37103e-07
3.304e-07
4.60408e-07
6.41573e-07
8.94023e-07
1.24581e-06
1.73602e-06
2.41912e-06
3.37101e-06
4.69746e-06
6.54585e-06
9.12156e-06
1.27108e-05
1.77123e-05
2.46818e-05
3.43938e-05
4.79273e-05
6.67861e-05
9.30656e-05
0.000129686
0
0
0
0
0
0
0
0
0
0
-0.000129686
-9.30662e-05
-6.67868e-05
-4.79283e-05
-3.43951e-05
-2.46835e-05
-1.77146e-05
-1.2714e-05
-9.126e-06
-6.55203e-06
-4.70606e-06
-3.38299e-06
-2.4358e-06
-1.75926e-06
-1.2782e-06
-9.39151e-07
-7.04456e-07
-5.48034e-07
-4.52506e-07
-4.07255e-07
)
;

boundaryField
{
    frontHeated
    {
        type            zeroGradient;
    }
    backOutlet
    {
        type            zeroGradient;
    }
    defaultFaces
    {
        type            empty;
    }
}


// ************************************************************************* //
