/*--------------------------------*- C++ -*----------------------------------*\
  =========                 |
  \\      /  F ield         | OpenFOAM: The Open Source CFD Toolbox
   \\    /   O peration     | Website:  https://openfoam.org
    \\  /    A nd           | Version:  dev
     \\/     M anipulation  |
\*---------------------------------------------------------------------------*/
FoamFile
{
    format      ascii;
    class       volVectorField;
    location    "0.173387";
    object      U;
}
// * * * * * * * * * * * * * * * * * * * * * * * * * * * * * * * * * * * * * //

dimensions      [0 1 -1 0 0 0 0];

internalField   nonuniform List<vector> 
100
(
(0.0432355 0 0)
(0.109365 0 0)
(0.169043 0 0)
(0.22804 0 0)
(0.287336 0 0)
(0.346663 0 0)
(0.405874 0 0)
(0.465011 0 0)
(0.524133 0 0)
(0.583264 0 0)
(0.642403 0 0)
(0.701551 0 0)
(0.760712 0 0)
(0.819895 0 0)
(0.879107 0 0)
(0.938355 0 0)
(0.997645 0 0)
(1.05698 0 0)
(1.11636 0 0)
(1.17579 0 0)
(1.23527 0 0)
(1.29478 0 0)
(1.35432 0 0)
(1.41386 0 0)
(1.47338 0 0)
(1.53284 0 0)
(1.5922 0 0)
(1.6514 0 0)
(1.71037 0 0)
(1.76906 0 0)
(1.82736 0 0)
(1.88516 0 0)
(1.94252 0 0)
(1.99942 0 0)
(2.0555 0 0)
(2.11046 0 0)
(2.16433 0 0)
(2.21725 0 0)
(2.26926 0 0)
(2.32027 0 0)
(2.37015 0 0)
(2.41877 0 0)
(2.46607 0 0)
(2.51198 0 0)
(2.55647 0 0)
(2.59951 0 0)
(2.64106 0 0)
(2.68108 0 0)
(2.71956 0 0)
(2.75647 0 0)
(2.79186 0 0)
(2.82561 0 0)
(2.85809 0 0)
(2.8894 0 0)
(2.91858 0 0)
(2.94739 0 0)
(2.97966 0 0)
(3.01339 0 0)
(3.04429 0 0)
(3.07291 0 0)
(3.09506 0 0)
(3.0941 0 0)
(3.05385 0 0)
(2.9755 0 0)
(2.88168 0 0)
(2.80715 0 0)
(2.78522 0 0)
(2.87014 0 0)
(3.07262 0 0)
(4.53873 0 0)
(4.54925 0 0)
(4.57466 0 0)
(4.63975 0 0)
(4.66481 0 0)
(4.66175 0 0)
(4.65764 0 0)
(4.65272 0 0)
(4.6497 0 0)
(4.64748 0 0)
(4.64587 0 0)
(4.64441 0 0)
(4.6429 0 0)
(4.64112 0 0)
(4.63889 0 0)
(4.63602 0 0)
(4.63238 0 0)
(4.62798 0 0)
(4.6229 0 0)
(4.61732 0 0)
(4.6114 0 0)
(4.60526 0 0)
(4.59897 0 0)
(4.59252 0 0)
(4.58589 0 0)
(4.57873 0 0)
(4.57275 0 0)
(4.55633 0 0)
(4.60663 0 0)
(4.26449 0 0)
(6.73095 0 0)
)
;

boundaryField
{
    frontHeated
    {
        type            noSlip;
    }
    backOutlet
    {
        type            pressureInletOutletVelocity;
        value           uniform (6.73095 0 0);
    }
    defaultFaces
    {
        type            empty;
    }
}


// ************************************************************************* //
