/*--------------------------------*- C++ -*----------------------------------*\
  =========                 |
  \\      /  F ield         | OpenFOAM: The Open Source CFD Toolbox
   \\    /   O peration     | Website:  https://openfoam.org
    \\  /    A nd           | Version:  dev
     \\/     M anipulation  |
\*---------------------------------------------------------------------------*/
FoamFile
{
    format      ascii;
    class       volScalarField;
    location    "0.115033";
    object      rhoSmear;
}
// * * * * * * * * * * * * * * * * * * * * * * * * * * * * * * * * * * * * * //

dimensions      [1 -3 -1 0 0 0 0];

internalField   nonuniform List<scalar> 
100
(
1.36289e-10
1.51432e-10
1.83401e-10
2.35747e-10
3.14288e-10
4.2775e-10
5.8874e-10
8.15145e-10
1.13212e-09
1.57489e-09
2.19265e-09
3.05403e-09
4.25475e-09
5.92822e-09
8.26038e-09
1.15104e-08
1.60393e-08
2.23503e-08
3.11447e-08
4.33997e-08
6.04768e-08
8.42736e-08
1.17434e-07
1.63643e-07
2.28034e-07
3.17763e-07
4.42798e-07
6.17033e-07
8.59827e-07
1.19816e-06
1.66962e-06
2.32659e-06
3.24207e-06
4.51779e-06
6.29547e-06
8.77266e-06
1.22246e-05
1.70348e-05
2.37378e-05
3.30783e-05
4.60941e-05
6.42316e-05
8.95058e-05
0.000124725
0
0
0
0
0
0
0
0
0
-0.000124725
-8.95058e-05
-6.42316e-05
-4.60941e-05
-3.30783e-05
-2.37378e-05
-1.70348e-05
-1.22246e-05
-8.77266e-06
-6.29547e-06
-4.51779e-06
-3.24207e-06
-2.32659e-06
-1.66962e-06
-1.19816e-06
-8.59827e-07
-6.17033e-07
-4.42798e-07
-3.17763e-07
-2.28034e-07
-1.63643e-07
-1.17434e-07
-8.42736e-08
-6.04768e-08
-4.33996e-08
-3.11446e-08
-2.23501e-08
-1.6039e-08
-1.151e-08
-8.25991e-09
-5.92756e-09
-4.25383e-09
-3.05275e-09
-2.19087e-09
-1.57241e-09
-1.12866e-09
-8.10326e-10
-5.82025e-10
-4.18393e-10
-3.01249e-10
-2.17578e-10
-1.58082e-10
-1.1615e-10
-8.71241e-11
-6.77785e-11
-5.59639e-11
-5.03675e-11
)
;

boundaryField
{
    frontHeated
    {
        type            zeroGradient;
    }
    backOutlet
    {
        type            zeroGradient;
    }
    defaultFaces
    {
        type            empty;
    }
}


// ************************************************************************* //
