/*--------------------------------*- C++ -*----------------------------------*\
  =========                 |
  \\      /  F ield         | OpenFOAM: The Open Source CFD Toolbox
   \\    /   O peration     | Website:  https://openfoam.org
    \\  /    A nd           | Version:  dev
     \\/     M anipulation  |
\*---------------------------------------------------------------------------*/
FoamFile
{
    format      ascii;
    class       volScalarField;
    location    "0.213619";
    object      T;
}
// * * * * * * * * * * * * * * * * * * * * * * * * * * * * * * * * * * * * * //

dimensions      [0 0 0 1 0 0 0];

internalField   nonuniform List<scalar> 
100
(
239.151
207.322
198.043
194.368
192.646
191.751
191.255
190.973
190.815
190.734
190.703
190.704
190.729
190.77
190.822
190.881
190.944
191.009
191.074
191.138
191.199
191.257
191.311
191.361
191.408
191.45
191.491
191.53
191.57
191.613
191.66
191.716
191.783
191.865
191.967
192.092
192.246
192.434
192.66
192.93
193.249
193.623
194.057
194.558
195.129
195.778
196.508
197.327
198.239
199.25
200.366
201.591
202.933
204.396
205.987
207.711
209.575
211.586
213.749
216.07
218.555
221.208
224.034
227.037
230.224
233.604
237.19
241
245.055
249.376
253.983
258.888
264.096
269.603
275.393
281.442
287.715
294.176
300.781
307.484
314.224
320.915
327.424
333.718
336.045
347.503
363.85
375.865
385.12
385.122
385.124
385.126
385.128
385.13
385.132
385.134
385.135
385.137
385.138
385.047
)
;

boundaryField
{
    frontHeated
    {
        type            fixedValue;
        value           uniform 385.15;
    }
    backOutlet
    {
        type            fixedValue;
        value           uniform 385.15;
    }
    defaultFaces
    {
        type            empty;
    }
}


// ************************************************************************* //
