/*--------------------------------*- C++ -*----------------------------------*\
  =========                 |
  \\      /  F ield         | OpenFOAM: The Open Source CFD Toolbox
   \\    /   O peration     | Website:  https://openfoam.org
    \\  /    A nd           | Version:  dev
     \\/     M anipulation  |
\*---------------------------------------------------------------------------*/
FoamFile
{
    format      ascii;
    class       volScalarField;
    location    "0.213619";
    object      thermo:rho;
}
// * * * * * * * * * * * * * * * * * * * * * * * * * * * * * * * * * * * * * //

dimensions      [1 -3 0 0 0 0 0];

internalField   nonuniform List<scalar> 
100
(
0.0905243
0.104422
0.109315
0.111382
0.112377
0.112902
0.113194
0.113362
0.113455
0.113504
0.113522
0.113521
0.113506
0.113482
0.113451
0.113416
0.113379
0.11334
0.113302
0.113264
0.113228
0.113193
0.113161
0.113132
0.113104
0.113079
0.113055
0.113032
0.113008
0.112983
0.112955
0.112922
0.112883
0.112834
0.112775
0.112701
0.112611
0.112501
0.112369
0.112212
0.112027
0.11181
0.11156
0.111273
0.110947
0.11058
0.110168
0.109711
0.109207
0.108652
0.108048
0.107391
0.106681
0.105917
0.105099
0.104227
0.103299
0.102318
0.101283
0.100195
0.0990554
0.0978673
0.0966328
0.0953546
0.0940347
0.0926742
0.0912729
0.0898298
0.0883434
0.0868126
0.0852382
0.0836232
0.081974
0.0802995
0.0786112
0.0769219
0.0752446
0.0735921
0.0719761
0.070407
0.0688968
0.0674602
0.0661192
0.0648722
0.0644229
0.0622988
0.0595
0.0575981
0.0439688
585.518
902.355
919.256
939.246
940.383
940.382
954.234
956.994
955.667
878.665
780.406
)
;

boundaryField
{
    frontHeated
    {
        type            calculated;
        value           uniform 0.0562093;
    }
    backOutlet
    {
        type            calculated;
        value           uniform 780.378;
    }
    defaultFaces
    {
        type            empty;
    }
}


// ************************************************************************* //
