/*--------------------------------*- C++ -*----------------------------------*\
  =========                 |
  \\      /  F ield         | OpenFOAM: The Open Source CFD Toolbox
   \\    /   O peration     | Website:  https://openfoam.org
    \\  /    A nd           | Version:  dev
     \\/     M anipulation  |
\*---------------------------------------------------------------------------*/
FoamFile
{
    format      ascii;
    class       volScalarField;
    location    "1.703109";
    object      p_rgh;
}
// * * * * * * * * * * * * * * * * * * * * * * * * * * * * * * * * * * * * * //

dimensions      [1 -1 -2 0 0 0 0];

internalField   nonuniform List<scalar> 
100
(
99997.5
99997.5
99997.5
99997.5
99997.5
99997.5
99997.5
99997.5
99997.5
99997.4
102217
104738
104750
104750
104750
104750
104750
104750
104751
104751
104751
104751
104751
104751
104751
104751
104751
104751
104751
104751
104751
104751
104751
104752
104752
104752
104752
104752
104752
104752
104752
104752
104752
104752
104752
104753
104753
104753
104753
104753
104753
104753
104753
104753
104753
104753
104754
104754
104754
104754
104754
104754
104754
104754
104754
104754
104754
104755
104755
104755
104755
104755
104755
104755
104755
104755
104755
104755
104755
104755
104755
104755
104756
104756
104756
104756
104756
104756
104756
104756
104756
104756
104756
104756
104756
104756
104756
104756
104756
104737
)
;

boundaryField
{
    frontHeated
    {
        type            fixedFluxPressure;
        gradient        uniform -7.55151;
        value           uniform 99997.4;
    }
    backOutlet
    {
        type            prghTotalPressure;
        rho             thermo:rho;
        psi             none;
        gamma           1;
        p0              uniform 100000;
        value           uniform 104737;
        rho             thermo:rho;
    }
    defaultFaces
    {
        type            empty;
    }
}


// ************************************************************************* //
