/*--------------------------------*- C++ -*----------------------------------*\
  =========                 |
  \\      /  F ield         | OpenFOAM: The Open Source CFD Toolbox
   \\    /   O peration     | Website:  https://openfoam.org
    \\  /    A nd           | Version:  dev
     \\/     M anipulation  |
\*---------------------------------------------------------------------------*/
FoamFile
{
    format      ascii;
    class       volScalarField;
    location    "0.0690327";
    object      p;
}
// * * * * * * * * * * * * * * * * * * * * * * * * * * * * * * * * * * * * * //

dimensions      [1 -1 -2 0 0 0 0];

internalField   nonuniform List<scalar> 
100
(
29161.8
29161.8
29161.8
29161.8
29161.7
29161.7
29161.7
29161.7
29161.7
29161.6
29161.6
29161.5
29161.5
29161.4
29161.4
29161.3
29161.2
29161.2
29161.1
29161
29160.9
29160.7
29160.6
29160.4
29160.2
29223.7
28795.9
28457.4
28184.2
27906
27621.4
27339.5
27058.3
26776.6
26494.4
26211.7
25927.9
25643
25356.7
25068.8
24779.2
24487.9
24195.1
23900.7
23605.1
23308.5
23011
22712.8
22414.1
22115.1
21815.8
21516.4
21216.7
20917
20617.3
20317.4
20017.6
19717.7
19417.8
19117.9
18818
18518.1
18218.2
17918.3
17618.4
17318.5
17018.6
16718.7
16418.8
16118.9
15818.9
15519
15219.1
14919.2
14619.3
14319.4
14019.5
13719.6
13419.7
13119.7
12819.8
12519.9
12220
11920.1
11620.2
11320.2
11020.4
10719.6
10421
10118.1
10000
10000
10000
10000
10000
10000
10000
10000
10000
10000
)
;

boundaryField
{
    frontHeated
    {
        type            calculated;
        value           uniform 29161.8;
    }
    backOutlet
    {
        type            calculated;
        value           uniform 10000;
    }
    defaultFaces
    {
        type            empty;
    }
}


// ************************************************************************* //
