/*--------------------------------*- C++ -*----------------------------------*\
  =========                 |
  \\      /  F ield         | OpenFOAM: The Open Source CFD Toolbox
   \\    /   O peration     | Website:  https://openfoam.org
    \\  /    A nd           | Version:  dev
     \\/     M anipulation  |
\*---------------------------------------------------------------------------*/
FoamFile
{
    format      ascii;
    class       volScalarField;
    location    "0.0690327";
    object      T;
}
// * * * * * * * * * * * * * * * * * * * * * * * * * * * * * * * * * * * * * //

dimensions      [0 0 0 1 0 0 0];

internalField   nonuniform List<scalar> 
100
(
283.047
280.735
280.251
280.156
280.207
280.327
280.473
280.612
280.718
280.775
280.787
280.749
280.727
280.928
281.68
283.337
286.223
290.61
296.744
304.866
315.255
328.223
344.299
363.089
385.076
385.118
385.123
385.128
385.132
385.136
385.139
385.142
385.144
385.146
385.148
385.149
385.15
385.15
385.151
385.151
385.151
385.152
385.152
385.152
385.152
385.152
385.152
385.152
385.152
385.152
385.152
385.152
385.152
385.152
385.152
385.152
385.152
385.152
385.152
385.152
385.152
385.152
385.152
385.152
385.152
385.152
385.152
385.152
385.152
385.152
385.152
385.152
385.152
385.152
385.152
385.152
385.152
385.152
385.152
385.152
385.152
385.152
385.152
385.152
385.152
385.152
385.152
385.152
385.152
385.152
385.152
385.152
385.152
385.152
385.152
385.152
385.151
385.151
385.15
385.15
)
;

boundaryField
{
    frontHeated
    {
        type            fixedValue;
        value           uniform 385.15;
    }
    backOutlet
    {
        type            fixedValue;
        value           uniform 385.15;
    }
    defaultFaces
    {
        type            empty;
    }
}


// ************************************************************************* //
