/*--------------------------------*- C++ -*----------------------------------*\
  =========                 |
  \\      /  F ield         | OpenFOAM: The Open Source CFD Toolbox
   \\    /   O peration     | Website:  https://openfoam.org
    \\  /    A nd           | Version:  dev
     \\/     M anipulation  |
\*---------------------------------------------------------------------------*/
FoamFile
{
    format      ascii;
    class       volScalarField;
    location    "0.0690327";
    object      thermo:rho;
}
// * * * * * * * * * * * * * * * * * * * * * * * * * * * * * * * * * * * * * //

dimensions      [1 -3 0 0 0 0 0];

internalField   nonuniform List<scalar> 
100
(
0.223046
0.224883
0.225271
0.225347
0.225306
0.225209
0.225092
0.224981
0.224895
0.22485
0.224839
0.224869
0.224887
0.224725
0.224125
0.222813
0.220566
0.217236
0.212746
0.207077
0.200252
0.192339
0.183358
0.173868
0.160791
128.813
858.816
907.135
934.352
949.695
958.349
963.231
965.986
967.54
968.417
968.912
969.191
969.349
969.438
969.488
969.516
969.532
969.541
969.546
969.549
969.55
969.551
969.552
969.552
969.552
969.552
969.552
969.552
969.552
969.552
969.552
969.552
969.552
969.552
969.552
969.552
969.552
969.552
969.552
969.552
969.552
969.552
969.552
969.552
969.552
969.552
969.552
969.552
969.552
969.552
969.552
969.552
969.552
969.552
969.552
969.552
969.552
969.552
969.552
969.552
969.552
969.552
969.552
969.552
969.552
969.552
969.552
969.552
969.552
969.552
969.552
969.553
969.553
969.553
969.553
)
;

boundaryField
{
    frontHeated
    {
        type            calculated;
        value           uniform 0.163916;
    }
    backOutlet
    {
        type            calculated;
        value           uniform 969.553;
    }
    defaultFaces
    {
        type            empty;
    }
}


// ************************************************************************* //
