/*--------------------------------*- C++ -*----------------------------------*\
  =========                 |
  \\      /  F ield         | OpenFOAM: The Open Source CFD Toolbox
   \\    /   O peration     | Website:  https://openfoam.org
    \\  /    A nd           | Version:  dev
     \\/     M anipulation  |
\*---------------------------------------------------------------------------*/
FoamFile
{
    format      ascii;
    class       volScalarField;
    location    "0.208149";
    object      rhoSmear;
}
// * * * * * * * * * * * * * * * * * * * * * * * * * * * * * * * * * * * * * //

dimensions      [1 -3 -1 0 0 0 0];

internalField   nonuniform List<scalar> 
100
(
2.06585e-18
2.29539e-18
2.77997e-18
3.57343e-18
4.76395e-18
6.48379e-18
8.92406e-18
1.23559e-17
1.71606e-17
2.3872e-17
3.32359e-17
4.62927e-17
6.4493e-17
8.98593e-17
1.2521e-16
1.74473e-16
2.43122e-16
3.38784e-16
4.72089e-16
6.57848e-16
9.16701e-16
1.27741e-15
1.78005e-15
2.48048e-15
3.45652e-15
4.81661e-15
6.71189e-15
9.35292e-15
1.30332e-14
1.81616e-14
2.53079e-14
3.52662e-14
4.9143e-14
6.84801e-14
9.54261e-14
1.32975e-13
1.85299e-13
2.58212e-13
3.59815e-13
5.01397e-13
6.9869e-13
9.73615e-13
1.35672e-12
1.89057e-12
2.63449e-12
3.67112e-12
5.11566e-12
7.12861e-12
9.93362e-12
1.38424e-11
1.92892e-11
2.68792e-11
3.74558e-11
5.21941e-11
7.27318e-11
1.01351e-10
1.41231e-10
1.96804e-10
2.74243e-10
3.82154e-10
5.32527e-10
7.4207e-10
1.03406e-09
1.44095e-09
2.00795e-09
2.79805e-09
3.89905e-09
5.43328e-09
7.5712e-09
1.05504e-08
1.47018e-08
2.04868e-08
2.8548e-08
3.97813e-08
5.54347e-08
7.72475e-08
1.07643e-07
1.5e-07
2.09023e-07
2.9127e-07
4.05881e-07
5.6559e-07
7.88142e-07
1.09827e-06
1.53042e-06
2.13262e-06
0
0
0
0
0
0
0
0
0
0
0
0
0
0
)
;

boundaryField
{
    frontHeated
    {
        type            zeroGradient;
    }
    backOutlet
    {
        type            zeroGradient;
    }
    defaultFaces
    {
        type            empty;
    }
}


// ************************************************************************* //
