/*--------------------------------*- C++ -*----------------------------------*\
  =========                 |
  \\      /  F ield         | OpenFOAM: The Open Source CFD Toolbox
   \\    /   O peration     | Website:  https://openfoam.org
    \\  /    A nd           | Version:  dev
     \\/     M anipulation  |
\*---------------------------------------------------------------------------*/
FoamFile
{
    format      ascii;
    class       volScalarField;
    location    "0.149894";
    object      rhoSmear;
}
// * * * * * * * * * * * * * * * * * * * * * * * * * * * * * * * * * * * * * //

dimensions      [1 -3 -1 0 0 0 0];

internalField   nonuniform List<scalar> 
100
(
7.87741e-13
8.75267e-13
1.06005e-12
1.36261e-12
1.81657e-12
2.47237e-12
3.40289e-12
4.7115e-12
6.5436e-12
9.10278e-12
1.26734e-11
1.76521e-11
2.45922e-11
3.42648e-11
4.77446e-11
6.65293e-11
9.27061e-11
1.29184e-10
1.80015e-10
2.50848e-10
3.49553e-10
4.87097e-10
6.78763e-10
9.45847e-10
1.31803e-09
1.83665e-09
2.55935e-09
3.56642e-09
4.96976e-09
6.92529e-09
9.6503e-09
1.34476e-08
1.8739e-08
2.61126e-08
3.63875e-08
5.07055e-08
7.06575e-08
9.84602e-08
1.37203e-07
1.91191e-07
2.66422e-07
3.71255e-07
5.17339e-07
7.20905e-07
1.00457e-06
1.39986e-06
1.95068e-06
2.71825e-06
3.78785e-06
5.27831e-06
7.35526e-06
1.02495e-05
1.42825e-05
1.99025e-05
2.77338e-05
3.86467e-05
5.38537e-05
7.50444e-05
0.000104573
0
0
0
0
0
0
0
0
0
0
-0.000104573
-7.50444e-05
-5.38537e-05
-3.86467e-05
-2.77338e-05
-1.99025e-05
-1.42825e-05
-1.02495e-05
-7.35526e-06
-5.27832e-06
-3.78785e-06
-2.71826e-06
-1.95069e-06
-1.39987e-06
-1.00459e-06
-7.2093e-07
-5.17373e-07
-3.71303e-07
-2.66488e-07
-1.91283e-07
-1.37332e-07
-9.86403e-08
-7.09083e-08
-5.10551e-08
-3.68746e-08
-2.67913e-08
-1.96849e-08
-1.47656e-08
-1.1487e-08
-9.48464e-09
-8.53618e-09
)
;

boundaryField
{
    frontHeated
    {
        type            zeroGradient;
    }
    backOutlet
    {
        type            zeroGradient;
    }
    defaultFaces
    {
        type            empty;
    }
}


// ************************************************************************* //
