/*--------------------------------*- C++ -*----------------------------------*\
  =========                 |
  \\      /  F ield         | OpenFOAM: The Open Source CFD Toolbox
   \\    /   O peration     | Website:  https://openfoam.org
    \\  /    A nd           | Version:  dev
     \\/     M anipulation  |
\*---------------------------------------------------------------------------*/
FoamFile
{
    format      ascii;
    class       volScalarField;
    location    "0.149894";
    object      thermo:rho;
}
// * * * * * * * * * * * * * * * * * * * * * * * * * * * * * * * * * * * * * //

dimensions      [1 -3 0 0 0 0 0];

internalField   nonuniform List<scalar> 
100
(
0.0929454
0.0999376
0.101806
0.102497
0.102798
0.102937
0.102995
0.103009
0.102996
0.102967
0.102928
0.102883
0.102837
0.102791
0.102748
0.102708
0.102673
0.102643
0.102618
0.102596
0.102577
0.102556
0.10253
0.102495
0.102444
0.102371
0.102268
0.102128
0.101942
0.101704
0.101403
0.101035
0.10059
0.100064
0.0994509
0.0987458
0.0979451
0.0970457
0.0960454
0.0949428
0.0937372
0.0924286
0.091018
0.0895072
0.0878989
0.0861969
0.0844064
0.0825343
0.0805896
0.078584
0.0765337
0.0744626
0.0724102
0.0703868
0.0691306
0.0664101
0.0628352
0.0592812
0.0515932
271.496
866.674
911.429
936.708
950.995
959.07
963.633
966.211
967.668
968.49
968.954
969.216
969.363
969.446
969.493
969.519
969.534
969.542
969.547
969.549
969.551
969.551
969.552
969.552
969.552
969.552
969.552
969.552
969.552
969.552
969.552
969.552
969.552
969.552
969.552
969.552
969.552
969.552
969.552
969.552
969.552
)
;

boundaryField
{
    frontHeated
    {
        type            calculated;
        value           uniform 0.0573741;
    }
    backOutlet
    {
        type            calculated;
        value           uniform 969.552;
    }
    defaultFaces
    {
        type            empty;
    }
}


// ************************************************************************* //
