/*--------------------------------*- C++ -*----------------------------------*\
  =========                 |
  \\      /  F ield         | OpenFOAM: The Open Source CFD Toolbox
   \\    /   O peration     | Website:  https://openfoam.org
    \\  /    A nd           | Version:  dev
     \\/     M anipulation  |
\*---------------------------------------------------------------------------*/
FoamFile
{
    format      ascii;
    class       volScalarField;
    location    "3.538009";
    object      thermo:rho;
}
// * * * * * * * * * * * * * * * * * * * * * * * * * * * * * * * * * * * * * //

dimensions      [1 -3 0 0 0 0 0];

internalField   nonuniform List<scalar> 
100
(
0.567721
0.569894
0.5705
0.570662
0.570561
0.570135
0.568884
0.566008
0.563859
0.562328
431.97
966.023
969.553
969.553
969.553
969.553
969.553
969.553
969.553
969.553
969.553
969.553
969.553
969.553
969.553
969.553
969.553
969.553
969.553
969.553
969.553
969.553
969.553
969.553
969.553
969.553
969.553
969.553
969.553
969.553
969.553
969.553
969.553
969.553
969.553
969.553
969.553
969.553
969.553
969.553
969.553
969.553
969.553
969.553
969.553
969.553
969.553
969.553
969.553
969.553
969.553
969.553
969.553
969.553
969.553
969.553
969.553
969.553
969.553
969.553
969.553
969.553
969.553
969.553
969.553
969.553
969.553
969.553
969.553
969.553
969.553
969.553
969.553
969.553
969.553
969.553
969.553
969.553
969.553
969.553
969.553
969.553
969.553
969.553
969.553
969.553
969.553
969.553
969.552
960.019
)
;

boundaryField
{
    frontHeated
    {
        type            calculated;
        value           uniform 0.562093;
    }
    backOutlet
    {
        type            calculated;
        value           uniform 960.019;
    }
    defaultFaces
    {
        type            empty;
    }
}


// ************************************************************************* //
