/*--------------------------------*- C++ -*----------------------------------*\
  =========                 |
  \\      /  F ield         | OpenFOAM: The Open Source CFD Toolbox
   \\    /   O peration     | Website:  https://openfoam.org
    \\  /    A nd           | Version:  dev
     \\/     M anipulation  |
\*---------------------------------------------------------------------------*/
FoamFile
{
    format      ascii;
    class       volScalarField;
    location    "0.11728";
    object      p;
}
// * * * * * * * * * * * * * * * * * * * * * * * * * * * * * * * * * * * * * //

dimensions      [1 -1 -2 0 0 0 0];

internalField   nonuniform List<scalar> 
100
(
14224.3
14224.3
14224.3
14224.3
14224.3
14224.3
14224.3
14224.3
14224.3
14224.3
14224.3
14224.3
14224.3
14224.3
14224.3
14224.3
14224.3
14224.3
14224.3
14224.3
14224.3
14224.3
14224.3
14224.3
14224.3
14224.2
14224.2
14224.2
14224.2
14224.2
14224.2
14224.2
14224.1
14224.1
14224.1
14224
14224
14224
14223.9
14223.9
14223.8
14223.8
14223.8
14223.3
14223.8
14161.4
13892.3
13728.4
13636.3
13543.1
13441.9
13343.8
13246.7
13149
13051.1
12953.2
12855.2
12757
12658.6
12560
12461.3
12362.3
12263.1
12163.7
12063.9
11964
11863.7
11763.2
11662.4
11561.4
11460.2
11358.8
11257.2
11155.4
11053.6
10951.6
10849.5
10747.4
10645.2
10542.9
10440.6
10338.3
10235.9
10133.5
10030.1
10000
10000
10000
10000
10000
10000
10000
10000
10000
10000
10000
10000
10000
10000
10000
)
;

boundaryField
{
    frontHeated
    {
        type            calculated;
        value           uniform 14224.3;
    }
    backOutlet
    {
        type            calculated;
        value           uniform 10000;
    }
    defaultFaces
    {
        type            empty;
    }
}


// ************************************************************************* //
