/*--------------------------------*- C++ -*----------------------------------*\
  =========                 |
  \\      /  F ield         | OpenFOAM: The Open Source CFD Toolbox
   \\    /   O peration     | Website:  https://openfoam.org
    \\  /    A nd           | Version:  dev
     \\/     M anipulation  |
\*---------------------------------------------------------------------------*/
FoamFile
{
    format      ascii;
    class       volScalarField;
    location    "0.11728";
    object      thermo:rho;
}
// * * * * * * * * * * * * * * * * * * * * * * * * * * * * * * * * * * * * * //

dimensions      [1 -3 0 0 0 0 0];

internalField   nonuniform List<scalar> 
100
(
0.125433
0.130185
0.131342
0.131745
0.131898
0.131941
0.131929
0.131886
0.131826
0.131759
0.13169
0.131624
0.131567
0.131519
0.131483
0.131457
0.131438
0.131418
0.131387
0.13133
0.131228
0.131061
0.130805
0.130437
0.129934
0.129276
0.128445
0.127425
0.126205
0.124775
0.123129
0.121264
0.119178
0.116874
0.114355
0.111628
0.108701
0.105586
0.102298
0.0988568
0.0952784
0.0916695
0.087589
0.0861667
0.0668686
487.978
881.488
919.946
941.597
953.795
960.67
964.545
966.73
967.962
968.656
969.048
969.268
969.393
969.463
969.502
969.524
969.536
969.543
969.547
969.549
969.551
969.551
969.552
969.552
969.552
969.552
969.552
969.552
969.552
969.552
969.552
969.552
969.552
969.552
969.552
969.552
969.552
969.552
969.552
969.552
969.552
969.552
969.552
969.552
969.552
969.552
969.552
969.552
969.552
969.552
969.552
969.552
969.552
969.552
969.553
)
;

boundaryField
{
    frontHeated
    {
        type            calculated;
        value           uniform 0.079954;
    }
    backOutlet
    {
        type            calculated;
        value           uniform 969.553;
    }
    defaultFaces
    {
        type            empty;
    }
}


// ************************************************************************* //
