/*--------------------------------*- C++ -*----------------------------------*\
  =========                 |
  \\      /  F ield         | OpenFOAM: The Open Source CFD Toolbox
   \\    /   O peration     | Website:  https://openfoam.org
    \\  /    A nd           | Version:  dev
     \\/     M anipulation  |
\*---------------------------------------------------------------------------*/
FoamFile
{
    format      ascii;
    class       volScalarField;
    location    "0.196435";
    object      rhoSmear;
}
// * * * * * * * * * * * * * * * * * * * * * * * * * * * * * * * * * * * * * //

dimensions      [1 -3 -1 0 0 0 0];

internalField   nonuniform List<scalar> 
100
(
7.19119e-16
7.99021e-16
9.67704e-16
1.24391e-15
1.65833e-15
2.257e-15
3.10645e-15
4.30107e-15
5.97358e-15
8.30982e-15
1.15694e-14
1.61144e-14
2.245e-14
3.12799e-14
4.35855e-14
6.07338e-14
8.46304e-14
1.1793e-13
1.64334e-13
2.28996e-13
3.19103e-13
4.44665e-13
6.19635e-13
8.63453e-13
1.20321e-12
1.67666e-12
2.3364e-12
3.25574e-12
4.53683e-12
6.32202e-12
8.80965e-12
1.22761e-11
1.71066e-11
2.38379e-11
3.32177e-11
4.62885e-11
6.45024e-11
8.98832e-11
1.25251e-10
1.74536e-10
2.43213e-10
3.38914e-10
4.72273e-10
6.58106e-10
9.17062e-10
1.27791e-09
1.78076e-09
2.48146e-09
3.45788e-09
4.81851e-09
6.71453e-09
9.35661e-09
1.30383e-08
1.81687e-08
2.53179e-08
3.52801e-08
4.91624e-08
6.85071e-08
9.54638e-08
1.33028e-07
1.85372e-07
2.58314e-07
3.59957e-07
5.01595e-07
6.98966e-07
9.74e-07
1.35726e-06
1.89132e-06
2.63553e-06
3.67257e-06
5.11768e-06
7.13142e-06
9.93754e-06
1.38478e-05
1.92968e-05
2.68898e-05
3.74706e-05
5.22147e-05
7.27606e-05
0.000101391
0.000141287
0
0
0
0
0
0
0
0
0
-0.000500351
0
0
0
0
0
0
0
0
0
)
;

boundaryField
{
    frontHeated
    {
        type            zeroGradient;
    }
    backOutlet
    {
        type            zeroGradient;
    }
    defaultFaces
    {
        type            empty;
    }
}


// ************************************************************************* //
