/*--------------------------------*- C++ -*----------------------------------*\
  =========                 |
  \\      /  F ield         | OpenFOAM: The Open Source CFD Toolbox
   \\    /   O peration     | Website:  https://openfoam.org
    \\  /    A nd           | Version:  dev
     \\/     M anipulation  |
\*---------------------------------------------------------------------------*/
FoamFile
{
    format      ascii;
    class       volScalarField;
    location    "0.211519";
    object      T;
}
// * * * * * * * * * * * * * * * * * * * * * * * * * * * * * * * * * * * * * //

dimensions      [0 0 0 1 0 0 0];

internalField   nonuniform List<scalar> 
100
(
238.931
207.554
198.446
194.849
193.168
192.296
191.814
191.541
191.39
191.314
191.286
191.291
191.318
191.361
191.414
191.475
191.539
191.605
191.67
191.734
191.795
191.853
191.907
191.957
192.002
192.045
192.085
192.125
192.165
192.208
192.258
192.316
192.387
192.475
192.584
192.719
192.884
193.085
193.327
193.616
193.957
194.356
194.819
195.351
195.958
196.646
197.42
198.286
199.25
200.318
201.495
202.787
204.2
205.74
207.413
209.226
211.185
213.296
215.567
218.002
220.608
223.389
226.348
229.492
232.827
236.366
240.125
244.124
248.386
252.933
257.784
262.949
268.427
274.207
280.266
286.57
293.08
299.756
306.551
313.403
320.188
326.979
330.832
338.788
352.594
368.288
375.739
385.12
385.122
385.124
385.126
385.128
385.13
385.132
385.134
385.135
385.137
385.138
385.139
385.062
)
;

boundaryField
{
    frontHeated
    {
        type            fixedValue;
        value           uniform 385.15;
    }
    backOutlet
    {
        type            fixedValue;
        value           uniform 385.15;
    }
    defaultFaces
    {
        type            empty;
    }
}


// ************************************************************************* //
