/*--------------------------------*- C++ -*----------------------------------*\
  =========                 |
  \\      /  F ield         | OpenFOAM: The Open Source CFD Toolbox
   \\    /   O peration     | Website:  https://openfoam.org
    \\  /    A nd           | Version:  dev
     \\/     M anipulation  |
\*---------------------------------------------------------------------------*/
FoamFile
{
    format      ascii;
    class       volScalarField;
    location    "0.243248";
    object      thermo:rho;
}
// * * * * * * * * * * * * * * * * * * * * * * * * * * * * * * * * * * * * * //

dimensions      [1 -3 0 0 0 0 0];

internalField   nonuniform List<scalar> 
100
(
0.0894798
0.10584
0.11229
0.115211
0.116681
0.117484
0.117949
0.118228
0.118399
0.118503
0.118563
0.118594
0.118604
0.118601
0.118586
0.118565
0.118538
0.118508
0.118475
0.118442
0.118407
0.118374
0.118341
0.11831
0.11828
0.118252
0.118226
0.118201
0.118178
0.118157
0.118136
0.118115
0.118094
0.118071
0.118045
0.118016
0.117981
0.11794
0.11789
0.11783
0.117759
0.117673
0.117572
0.117453
0.117315
0.117154
0.11697
0.116761
0.116524
0.116257
0.11596
0.11563
0.115266
0.114866
0.11443
0.113955
0.113442
0.112889
0.112295
0.111661
0.110984
0.110266
0.109507
0.108705
0.107861
0.106977
0.106053
0.105089
0.104087
0.103049
0.101974
0.100865
0.0997226
0.0985469
0.0973384
0.0960978
0.0948255
0.0935224
0.0921902
0.0908309
0.0894479
0.088045
0.0866273
0.0852006
0.0837705
0.0823435
0.0809277
0.0795345
0.0781704
0.0768342
0.0755228
0.0742225
0.0729129
0.0715825
0.0702068
0.0688464
0.067717
7.44828
29.2462
29.3682
)
;

boundaryField
{
    frontHeated
    {
        type            calculated;
        value           uniform 0.0562093;
    }
    backOutlet
    {
        type            calculated;
        value           uniform 29.245;
    }
    defaultFaces
    {
        type            empty;
    }
}


// ************************************************************************* //
