/*--------------------------------*- C++ -*----------------------------------*\
  =========                 |
  \\      /  F ield         | OpenFOAM: The Open Source CFD Toolbox
   \\    /   O peration     | Website:  https://openfoam.org
    \\  /    A nd           | Version:  dev
     \\/     M anipulation  |
\*---------------------------------------------------------------------------*/
FoamFile
{
    format      ascii;
    class       volScalarField;
    location    "0.001";
    object      rhoSmear;
}
// * * * * * * * * * * * * * * * * * * * * * * * * * * * * * * * * * * * * * //

dimensions      [1 -3 -1 0 0 0 0];

internalField   nonuniform List<scalar> 
2500
(
409.443
450.617
537.258
678.266
888.259
1189.26
1613.29
2206.24
3033.72
4189.71
5809.17
8084.17
0
-7948.57
-5708.26
-4111.78
-2970.59
-2151.35
-1561.14
-1134.45
-825.124
-600.792
-437.985
-319.472
-232.913
-169.66
-123.574
-90.1254
-65.8746
-48.2256
-35.278
-25.6931
-18.5543
-13.236
-9.29918
-6.42104
-4.35206
-2.89381
-1.88759
-1.20821
-0.759297
-0.468834
-0.284663
-0.170143
-0.100279
-0.05849
-0.0340806
-0.0203517
-0.0132551
-0.0104373
409.213
450.295
536.661
677.105
886.049
1185.13
1605.64
2192.2
3008.37
4145.25
5735.1
7972.82
0
-7838.77
-5635.13
-4067.91
-2945.67
-2137.5
-1553.45
-1130.26
-822.968
-599.735
-437.421
-319.099
-232.647
-169.506
-123.534
-90.167
-65.9501
-48.2917
-35.3102
-25.6866
-18.5173
-13.1817
-9.24014
-6.36605
-4.30586
-2.85785
-1.86127
-1.18989
-0.747081
-0.460991
-0.27979
-0.167195
-0.0985243
-0.0574398
-0.0334188
-0.0198896
-0.0129349
-0.0104783
408.903
449.778
535.624
675.081
882.246
1178.1
1592.6
2167.83
2962.97
4061.81
5586.01
7726.09
0
-7595.7
-5488.48
-3986.31
-2901.39
-2113.41
-1540.37
-1123.29
-819.313
-597.789
-436.346
-318.502
-232.344
-169.392
-123.53
-90.2133
-66.0045
-48.3318
-35.3285
-25.6855
-18.5034
-13.162
-9.21995
-6.34856
-4.29237
-2.84839
-1.85517
-1.1863
-0.745184
-0.460133
-0.279512
-0.167201
-0.0986401
-0.0575737
-0.0335309
-0.0199731
-0.013006
-0.0105502
408.652
449.276
534.512
672.82
877.931
1170.11
1577.89
2140.44
2910.77
3959.51
5379.69
7309.11
0
-7185.9
-5285.38
-3885.43
-2849.83
-2086.37
-1525.9
-1115.52
-815.171
-595.594
-435.193
-317.924
-232.096
-169.33
-123.562
-90.2807
-66.0725
-48.384
-35.3611
-25.7011
-18.5071
-13.1588
-9.21399
-6.34236
-4.28724
-2.84475
-1.85293
-1.18514
-0.744749
-0.460124
-0.279709
-0.167466
-0.0988966
-0.0577877
-0.033695
-0.0200953
-0.0131016
-0.0106294
408.65
449.056
533.771
671.099
874.457
1163.51
1565.84
2118.9
2871.42
3881.77
5201.92
6796.51
-8051.7
-6681.9
-5110.66
-3808.87
-2810.87
-2065.29
-1514.27
-1109.08
-811.67
-593.767
-434.313
-317.569
-232.021
-169.392
-123.677
-90.4017
-66.177
-48.4641
-35.417
-25.7371
-18.5284
-13.1703
-9.21957
-6.34473
-4.2881
-2.84505
-1.85314
-1.18541
-0.745097
-0.460509
-0.280083
-0.167797
-0.0991683
-0.0579986
-0.0338525
-0.0202121
-0.0131925
-0.0107072
409.101
449.352
533.744
670.495
872.865
1160.19
1559.74
2109.47
2860.92
3882.76
5270.01
7168.16
0
-7047.45
-5177.67
-3809.7
-2800.45
-2056.13
-1508.28
-1105.64
-809.87
-592.955
-434.072
-317.638
-232.233
-169.646
-123.919
-90.6064
-66.3378
-48.584
-35.503
-25.7966
-18.5684
-13.1966
-9.23635
-6.35526
-4.29465
-2.84914
-1.85573
-1.18711
-0.746253
-0.46132
-0.280665
-0.168217
-0.0994704
-0.0582142
-0.0340058
-0.020323
-0.0132779
-0.0107813
410.209
450.411
534.712
671.321
873.481
1160.49
1559.66
2109.71
2865.66
3906.41
5354.27
7413.56
0
-7288.77
-5260.47
-3833.03
-2805.27
-2056.32
-1507.98
-1105.73
-810.323
-593.593
-434.768
-318.312
-232.837
-170.155
-124.326
-90.919
-66.5707
-48.7538
-35.6247
-25.8827
-18.6284
-13.2378
-9.2642
-6.37376
-4.30675
-2.85695
-1.86073
-1.19029
-0.748277
-0.462616
-0.281501
-0.168761
-0.0998273
-0.0584502
-0.034164
-0.0204327
-0.0133603
-0.0108528
412.088
452.441
536.989
674.001
876.687
1164.38
1564.42
2115.38
2872.08
3913.62
5362.27
7422.14
0
-7297.01
-5268.34
-3840.25
-2811.62
-2061.68
-1512.41
-1109.34
-813.216
-595.88
-436.557
-319.701
-233.903
-170.961
-124.925
-91.3564
-66.8864
-48.9798
-35.7858
-25.9969
-18.709
-13.294
-9.30293
-6.40001
-4.32422
-2.86838
-1.86808
-1.19495
-0.7512
-0.464435
-0.282628
-0.169458
-0.10026
-0.0587206
-0.0343359
-0.0205466
-0.0134431
-0.0109237
414.722
455.387
540.543
678.578
882.689
1172.2
1574.36
2126.84
2880.85
3905.41
5295.14
7194.87
0
-7073.52
-5202.27
-3832.18
-2820.23
-2072.83
-1522.05
-1116.8
-818.755
-599.932
-439.508
-321.846
-235.457
-172.081
-125.726
-91.9258
-67.2895
-49.2649
-35.9876
-26.1399
-18.81
-13.3649
-9.35206
-6.43359
-4.34677
-2.88323
-1.87769
-1.20106
-0.755018
-0.466789
-0.284064
-0.170327
-0.100784
-0.0590365
-0.0345292
-0.0206697
-0.0135294
-0.0109964
418.174
459.262
545.372
685.038
891.607
1184.56
1591.35
2149.45
2907.31
3922.89
5247.43
6845.03
-8100.35
-6729.51
-5155.41
-3849.23
-2845.99
-2094.84
-1538.58
-1128.64
-827.087
-605.771
-443.606
-324.727
-237.484
-173.504
-126.723
-92.6232
-67.7775
-49.6074
-36.2289
-26.3103
-18.9303
-13.4493
-9.4108
-6.47387
-4.37394
-2.90123
-1.88938
-1.20851
-0.759684
-0.469662
-0.285807
-0.171373
-0.101405
-0.0594046
-0.034749
-0.0208057
-0.0136221
-0.0110734
422.37
463.992
551.366
693.195
903.211
1201.41
1616.18
2187.02
2966.54
4023.92
5451.56
7386.26
0
-7261.83
-5356.15
-3948.41
-2904.03
-2131.68
-1562.81
-1144.85
-838.037
-613.229
-448.722
-328.255
-239.924
-175.193
-127.892
-93.4338
-68.3412
-50.0013
-36.5055
-26.5053
-19.0677
-13.5458
-9.47796
-6.52001
-4.40515
-2.92196
-1.90289
-1.21716
-0.765114
-0.473013
-0.287841
-0.17259
-0.102125
-0.0598273
-0.0349981
-0.0209572
-0.0137234
-0.0111564
427.113
469.379
558.242
702.593
916.734
1221.52
1646.71
2234.71
3044.19
4157.12
5693.94
7842.82
0
-7710.83
-5594.38
-4079.32
-2980.31
-2178.47
-1592.58
-1164.27
-850.925
-621.891
-454.598
-332.268
-242.675
-177.084
-129.195
-94.3335
-68.9654
-50.4369
-36.8111
-26.7205
-19.2193
-13.6522
-9.55198
-6.57091
-4.43962
-2.94492
-1.91791
-1.2268
-0.771191
-0.476774
-0.290131
-0.173961
-0.102936
-0.0603023
-0.0352766
-0.0211249
-0.0138341
-0.0112465
432.164
475.184
565.66
712.706
931.197
1242.94
1679.16
2284.66
3122.6
4282.21
5893.45
8146.97
0
-8009.83
-5790.51
-4202.31
-3057.35
-2227.4
-1624.2
-1185.02
-864.728
-631.17
-460.888
-336.556
-245.61
-179.099
-130.581
-95.2915
-69.6307
-50.9014
-37.1373
-26.9503
-19.3812
-13.7658
-9.63102
-6.62529
-4.47652
-2.96954
-1.93406
-1.2372
-0.777768
-0.480861
-0.292627
-0.175462
-0.103825
-0.0608236
-0.035582
-0.0213082
-0.0139544
-0.0113439
437.264
481.078
573.152
722.866
945.542
1263.79
1710.03
2330.73
3191.36
4384.12
6039.89
8342.97
0
-8202.56
-5934.51
-4302.49
-3124.95
-2272.56
-1654.37
-1205.26
-878.393
-640.449
-467.22
-340.893
-248.59
-181.15
-131.998
-96.2736
-70.315
-51.3808
-37.4747
-27.1883
-19.549
-13.8836
-9.71305
-6.68178
-4.51488
-2.9952
-1.95092
-1.24809
-0.784684
-0.485175
-0.295272
-0.177058
-0.104774
-0.061382
-0.0359097
-0.021505
-0.0140834
-0.0114481
442.238
486.783
580.322
732.495
958.942
1282.81
1737.34
2370
3247.16
4461.57
6142.94
8470.21
0
-8327.76
-6035.91
-4378.63
-3179.69
-2310.99
-1681.03
-1223.67
-891.087
-649.208
-473.269
-345.076
-251.484
-183.157
-133.392
-97.2462
-70.9963
-51.8604
-37.8135
-27.428
-19.7183
-14.0025
-9.79599
-6.73895
-4.55376
-3.02124
-1.96809
-1.25921
-0.791767
-0.48961
-0.298003
-0.178713
-0.105763
-0.0619659
-0.0362536
-0.021712
-0.0142192
-0.011558
446.963
492.102
586.895
741.181
970.836
1299.29
1760.2
2401.6
3290.22
4518.39
6214.48
8554.1
0
-8410.29
-6106.25
-4434.46
-3221.93
-2341.99
-1703.34
-1239.54
-902.294
-657.088
-478.794
-348.943
-254.189
-185.049
-134.719
-98.1788
-71.6545
-52.3265
-38.1443
-27.6629
-19.8847
-14.1197
-9.87778
-6.79541
-4.59222
-3.04705
-1.98514
-1.27029
-0.798847
-0.49406
-0.300755
-0.180388
-0.106768
-0.0625623
-0.0366065
-0.0219254
-0.0143597
-0.0116718
451.32
496.912
592.726
748.703
980.919
1312.99
1778.71
2426.26
3322.51
4559.32
6263.95
8610.2
0
-8465.42
-6154.82
-4474.61
-3253.59
-2366.11
-1721.29
-1252.67
-911.793
-663.901
-483.651
-352.391
-256.631
-186.777
-135.942
-99.0469
-72.2721
-52.7671
-38.4589
-27.8873
-20.0441
-14.2323
-9.95653
-6.84987
-4.62939
-3.07205
-2.00169
-1.28108
-0.805766
-0.498425
-0.303465
-0.182045
-0.107767
-0.063158
-0.0369608
-0.0221406
-0.014502
-0.0117874
455.179
501.154
597.802
755.102
989.256
1324.01
1793.24
2445.08
3346.31
4588.48
6298.15
8648.08
0
-8502.62
-6188.36
-4503.19
-3276.86
-2384.41
-1735.31
-1263.2
-919.584
-669.598
-487.782
-355.367
-258.766
-188.306
-137.037
-99.8318
-72.8358
-53.1723
-38.7502
-28.0961
-20.1932
-14.3378
-10.0306
-6.90121
-4.66451
-3.09573
-2.01742
-1.29136
-0.81238
-0.502614
-0.306077
-0.18365
-0.108739
-0.0637405
-0.0373089
-0.0223533
-0.0146434
-0.0119027
458.415
504.725
602.04
760.38
995.984
1332.67
1804.35
2459.13
3363.62
4609.11
6321.78
8673.84
0
-8527.93
-6211.55
-4523.39
-3293.74
-2398.05
-1746.02
-1271.43
-925.799
-674.228
-491.194
-357.862
-260.581
-189.621
-137.99
-100.522
-73.3356
-53.5345
-39.0124
-28.2853
-20.3288
-14.4343
-10.0985
-6.94847
-4.69693
-3.11766
-2.03203
-1.30095
-0.818571
-0.50655
-0.308542
-0.185171
-0.109665
-0.0642982
-0.0376442
-0.0225593
-0.0147812
-0.0120155
461.044
507.613
605.429
764.563
1001.25
1339.3
1812.66
2469.41
3376.03
4623.61
6338.1
8691.42
0
-8545.21
-6227.58
-4537.61
-3305.86
-2408.04
-1754.04
-1277.72
-930.638
-677.895
-493.94
-359.898
-262.08
-190.721
-138.794
-101.11
-73.7654
-53.8485
-39.2413
-28.4515
-20.4487
-14.5201
-10.1592
-6.99085
-4.72614
-3.1375
-2.0453
-1.30969
-0.824241
-0.510172
-0.310821
-0.186584
-0.110529
-0.0648216
-0.0379605
-0.0227548
-0.0149127
-0.0121236
463.163
509.905
608.074
767.78
1005.25
1344.27
1818.78
2476.83
3384.83
4633.73
6349.35
8703.42
0
-8557.01
-6238.62
-4547.53
-3314.46
-2415.26
-1759.93
-1282.42
-934.317
-680.727
-496.091
-361.515
-263.285
-191.613
-139.452
-101.595
-74.1223
-54.1109
-39.4339
-28.5923
-20.551
-14.5937
-10.2116
-7.02773
-4.75171
-3.15496
-2.05705
-1.31747
-0.829314
-0.513429
-0.312881
-0.187868
-0.111319
-0.0653027
-0.0382531
-0.0229368
-0.015036
-0.0122254
464.84
511.689
610.102
770.204
1008.22
1347.92
1823.18
2482.09
3390.97
4640.71
6357.02
8711.56
0
-8565
-6246.15
-4554.37
-3320.46
-2420.37
-1764.17
-1285.85
-937.041
-682.855
-497.73
-362.762
-264.224
-192.314
-139.972
-101.979
-74.4061
-54.3205
-39.5885
-28.7061
-20.6343
-14.6543
-10.2551
-7.0586
-4.77331
-3.16984
-2.06714
-1.3242
-0.833736
-0.516287
-0.3147
-0.189009
-0.112026
-0.0657359
-0.0385182
-0.0231029
-0.0151492
-0.0123194
466.098
513.018
611.605
771.97
1010.35
1350.49
1826.25
2485.7
3395.14
4645.39
6362.12
8716.94
0
-8570.28
-6251.16
-4558.95
-3324.52
-2423.87
-1767.11
-1288.27
-938.984
-684.395
-498.932
-363.688
-264.928
-192.843
-140.366
-102.269
-74.6197
-54.4778
-39.7047
-28.792
-20.6978
-14.7009
-10.2891
-7.08307
-4.79067
-3.18196
-2.07546
-1.32982
-0.837463
-0.51872
-0.316263
-0.189998
-0.112643
-0.0661169
-0.0387532
-0.0232512
-0.0152511
-0.0124045
466.952
513.924
612.632
773.165
1011.76
1352.18
1828.25
2488.02
3397.78
4648.33
6365.3
8720.28
0
-8573.57
-6254.28
-4561.82
-3327.09
-2426.1
-1769.01
-1289.85
-940.279
-685.436
-499.759
-364.336
-265.428
-193.221
-140.646
-102.474
-74.7685
-54.5858
-39.7837
-28.8504
-20.7413
-14.7334
-10.3133
-7.10086
-4.80358
-3.19118
-2.08192
-1.33426
-0.840463
-0.520708
-0.317557
-0.190827
-0.113166
-0.066443
-0.0389562
-0.0233806
-0.0153408
-0.0124798
467.433
514.44
613.221
773.845
1012.56
1353.11
1829.33
2489.26
3399.18
4649.88
6366.96
8722.02
0
-8575.27
-6255.9
-4563.33
-3328.45
-2427.31
-1770.05
-1290.73
-941.013
-686.04
-500.251
-364.734
-265.744
-193.465
-140.828
-102.605
-74.8602
-54.6495
-39.8284
-28.8827
-20.7654
-14.7518
-10.3275
-7.11184
-4.81194
-3.19742
-2.08646
-1.3375
-0.84271
-0.522235
-0.318573
-0.19149
-0.113591
-0.0667123
-0.0391263
-0.0234904
-0.0154177
-0.0125449
467.577
514.602
613.405
774.049
1012.78
1353.35
1829.6
2489.55
3399.49
4650.21
6367.31
8722.37
0
-8575.61
-6256.24
-4563.65
-3328.76
-2427.59
-1770.31
-1290.97
-941.231
-686.235
-500.426
-364.891
-265.884
-193.583
-140.92
-102.67
-74.9028
-54.6752
-39.8434
-28.8918
-20.7717
-14.757
-10.3322
-7.11616
-4.81576
-3.20064
-2.08906
-1.33949
-0.844189
-0.523292
-0.319306
-0.191984
-0.113917
-0.0669239
-0.0392626
-0.02358
-0.0154816
-0.0125995
467.416
514.433
613.206
773.799
1012.46
1352.94
1829.08
2488.92
3398.75
4649.35
6366.37
8721.37
0
-8574.63
-6255.31
-4562.81
-3328.03
-2426.97
-1769.81
-1290.58
-940.941
-686.024
-500.28
-364.803
-265.842
-193.573
-140.924
-102.675
-74.9025
-54.6692
-39.8338
-28.8815
-20.7629
-14.7506
-10.3283
-7.11427
-4.81526
-3.20095
-2.08974
-1.34027
-0.844898
-0.523876
-0.319753
-0.192309
-0.114143
-0.0670772
-0.039365
-0.0236495
-0.0155324
-0.0126436
466.959
513.941
612.63
773.092
1011.57
1351.84
1827.74
2487.31
3396.86
4647.21
6364.02
8718.88
0
-8572.19
-6253
-4560.71
-3326.17
-2425.39
-1768.5
-1289.53
-940.121
-685.396
-499.805
-364.456
-265.605
-193.422
-140.832
-102.617
-74.8614
-54.6355
-39.8043
-28.8561
-20.7422
-14.7349
-10.3173
-7.10706
-4.81094
-3.19861
-2.08864
-1.33987
-0.844869
-0.524001
-0.31992
-0.192465
-0.114271
-0.0671727
-0.0394339
-0.023699
-0.0155702
-0.0126773
466.201
513.115
611.659
771.9
1010.08
1349.98
1825.45
2484.55
3393.62
4643.52
6359.95
8714.57
0
-8567.94
-6249
-4557.08
-3323
-2422.7
-1766.28
-1287.74
-938.726
-684.328
-498.992
-363.847
-265.164
-193.119
-140.633
-102.49
-74.777
-54.5754
-39.7582
-28.8193
-20.7131
-14.7126
-10.301
-7.09584
-4.80361
-3.19409
-2.08603
-1.33847
-0.844176
-0.523705
-0.319826
-0.192464
-0.114304
-0.0672131
-0.0394705
-0.0237293
-0.0155957
-0.0127011
465.124
511.935
610.26
770.167
1007.9
1347.23
1822.02
2480.37
3388.65
4637.81
6353.62
8707.82
0
-8561.32
-6242.8
-4551.49
-3318.15
-2418.63
-1762.96
-1285.09
-936.677
-682.778
-497.83
-362.977
-264.525
-192.665
-140.325
-102.288
-74.6455
-54.4876
-39.6965
-28.7738
-20.6785
-14.6865
-10.2818
-7.08222
-4.79438
-3.18811
-2.08233
-1.33629
-0.842961
-0.523066
-0.319514
-0.192327
-0.114255
-0.0672043
-0.0394781
-0.0237423
-0.0156101
-0.0127161
463.71
510.375
608.393
767.826
1004.91
1343.4
1817.18
2474.37
3381.43
4629.4
6344.2
8697.72
0
-8551.39
-6233.56
-4543.26
-3311.09
-2412.8
-1758.28
-1281.41
-933.852
-680.669
-496.279
-361.841
-263.696
-192.072
-139.913
-102.012
-74.4663
-54.3717
-39.62
-28.7213
-20.641
-14.6593
-10.262
-7.06806
-4.78458
-3.18158
-2.07815
-1.33372
-0.841446
-0.522211
-0.319055
-0.192094
-0.114145
-0.0671581
-0.0394631
-0.0237417
-0.0156157
-0.0127243
461.949
508.417
606.02
764.802
1000.97
1338.27
1810.57
2466.04
3371.2
4617.28
6330.42
8682.79
0
-8536.73
-6220.03
-4531.37
-3301.07
-2404.66
-1751.87
-1276.47
-930.107
-677.897
-494.27
-360.401
-262.668
-191.343
-139.407
-101.671
-74.2428
-54.2291
-39.5297
-28.6634
-20.6028
-14.6331
-10.2437
-7.05529
-4.77574
-3.1756
-2.07423
-1.33124
-0.839938
-0.521328
-0.318559
-0.191828
-0.114009
-0.0670941
-0.0394364
-0.0237338
-0.0156167
-0.0127291
459.849
506.059
603.119
761.037
995.97
1331.61
1801.79
2454.69
3356.94
4599.99
6310.39
8660.8
0
-8515.1
-6200.34
-4514.39
-3287.06
-2393.53
-1743.31
-1270.04
-925.333
-674.399
-491.751
-358.616
-261.415
-190.469
-138.805
-101.265
-73.9774
-54.0615
-39.427
-28.6015
-20.5655
-14.6103
-10.2293
-7.04582
-4.76943
-3.1714
-2.07146
-1.32947
-0.838835
-0.520668
-0.31818
-0.19162
-0.113902
-0.0670429
-0.0394155
-0.0237287
-0.0156197
-0.0127359
457.444
503.331
599.705
756.513
989.819
1323.21
1790.41
2439.55
3337.33
4575.52
6281.31
8628.28
0
-8483.1
-6171.72
-4490.33
-3267.79
-2378.65
-1732.16
-1261.9
-919.483
-670.214
-488.774
-356.517
-259.949
-189.453
-138.108
-100.795
-73.6704
-53.8687
-39.3116
-28.5359
-20.5301
-14.592
-10.2202
-7.04134
-4.76719
-3.17022
-2.07081
-1.32908
-0.83861
-0.520542
-0.318115
-0.191592
-0.113895
-0.0670474
-0.0394257
-0.0237418
-0.0156349
-0.0127531
454.803
500.302
595.846
751.282
982.526
1312.96
1776.08
2419.8
3310.8
4541.17
6239.07
8579.84
0
-8435.43
-6130.15
-4456.54
-3241.73
-2359.31
-1718.13
-1251.94
-912.545
-665.414
-485.454
-354.218
-258.356
-188.35
-137.347
-100.277
-73.3281
-53.6524
-39.1832
-28.4658
-20.4963
-14.5787
-10.2174
-7.04308
-4.77029
-3.17322
-2.07321
-1.33082
-0.839792
-0.521312
-0.318604
-0.191898
-0.114085
-0.0671656
-0.0395016
-0.0237943
-0.0156765
-0.0127924
452.039
497.095
591.685
745.512
974.258
1300.96
1758.68
2394.84
3275.73
4493.56
6177.77
8506.86
0
-8363.7
-6069.88
-4409.72
-3207.26
-2334.87
-1701.14
-1240.27
-904.605
-660.056
-481.851
-351.793
-256.714
-187.226
-136.571
-99.7425
-72.9673
-53.4197
-39.0436
-28.3908
-20.463
-14.5699
-10.221
-7.05159
-4.77956
-3.18132
-2.07951
-1.33538
-0.842916
-0.52337
-0.319917
-0.192716
-0.114585
-0.0674698
-0.0396883
-0.0239147
-0.0157639
-0.01287
449.307
493.892
587.455
739.512
965.42
1287.7
1738.66
2364.71
3231.01
4429.05
6089.3
8395.38
0
-8254.13
-5982.94
-4346.31
-3163.26
-2305.23
-1681.54
-1227.39
-896.128
-654.468
-478.169
-349.37
-255.113
-186.153
-135.835
-99.2306
-72.6137
-53.1846
-38.8987
-28.3122
-20.4297
-14.5644
-10.2302
-7.06673
-4.79529
-3.19505
-2.09034
-1.34335
-0.848481
-0.527101
-0.322337
-0.194243
-0.115529
-0.0680457
-0.0400407
-0.0241386
-0.0159222
-0.0130067
446.796
490.922
583.478
733.758
956.713
1274.18
1717.35
2330.87
3177.39
4345.41
5963.92
8222.46
0
-8084.05
-5859.64
-4264.07
-3110.61
-2272
-1660.66
-1214.25
-887.799
-649.121
-474.708
-347.129
-253.664
-185.204
-135.195
-98.784
-72.2974
-52.9664
-38.7589
-28.2342
-20.397
-14.5617
-10.2442
-7.08783
-4.81726
-3.21455
-2.10603
-1.35514
-0.856893
-0.532853
-0.326135
-0.19668
-0.117057
-0.0689887
-0.0406222
-0.0245084
-0.0161816
-0.0132281
444.713
488.445
580.135
728.855
949.129
1262.03
1697.33
2297.18
3119.73
4246.02
5794.87
7952.3
0
-7818.24
-5693.34
-4166.34
-3053.95
-2238.86
-1640.98
-1202.37
-880.511
-644.558
-471.796
-345.26
-252.47
-184.44
-134.692
-98.4346
-72.0442
-52.7841
-38.6363
-28.1632
-20.3674
-14.5617
-10.2622
-7.11401
-4.84488
-3.23956
-2.12663
-1.37097
-0.868425
-0.540899
-0.331551
-0.200216
-0.119309
-0.070399
-0.0415021
-0.0250724
-0.0165778
-0.0135646
443.243
486.705
577.806
725.443
943.801
1253.29
1682.4
2270.58
3070.13
4148.86
5596.6
7546.01
0
-7418.66
-5498.26
-4070.77
-3005.16
-2212.72
-1626.31
-1193.82
-875.377
-641.391
-469.779
-343.951
-251.627
-183.906
-134.347
-98.1971
-71.8677
-52.65
-38.5408
-28.1055
-20.344
-14.5652
-10.2836
-7.14444
-4.87737
-3.26959
-2.15191
-1.39083
-0.883204
-0.55142
-0.338767
-0.205012
-0.122416
-0.0723745
-0.0427516
-0.0258821
-0.0171498
-0.01405
442.522
485.882
576.777
724.03
941.684
1249.88
1676.54
2259.77
3048.14
4097.82
5456.16
7080.23
-8341.96
-6960.57
-5360.16
-4020.48
-2983.45
-2202.07
-1620.58
-1190.48
-873.357
-640.131
-468.95
-343.377
-251.231
-183.644
-134.176
-98.0758
-71.7701
-52.5675
-38.4764
-28.0646
-20.3289
-14.5732
-10.3083
-7.17835
-4.91389
-3.30398
-2.18146
-1.41453
-0.901209
-0.564491
-0.347902
-0.211193
-0.126488
-0.0750048
-0.0444399
-0.0269899
-0.0179389
-0.0147204
442.597
486.042
577.154
724.805
943.158
1252.61
1681.67
2269.83
3069.38
4148.04
5595.61
7545.01
0
-7417.7
-5497.35
-4069.81
-3004.26
-2211.96
-1625.67
-1193.17
-874.816
-640.956
-469.412
-343.615
-251.342
-183.693
-134.197
-98.0761
-71.7517
-52.5363
-38.4435
-28.0416
-20.323
-14.5857
-10.3358
-7.21498
-4.9536
-3.34197
-2.21472
-1.44175
-0.92229
-0.580088
-0.359002
-0.218836
-0.131607
-0.078365
-0.0466293
-0.0284459
-0.0189862
-0.0156122
443.421
487.117
578.819
727.552
947.805
1260.62
1695.8
2295.54
3118.02
4244.17
5792.88
7950.18
0
-7816.23
-5691.34
-4164.41
-3052.15
-2237.28
-1639.59
-1201.02
-879.334
-643.614
-471
-344.567
-251.912
-184.038
-134.406
-98.1973
-71.811
-52.5546
-38.4409
-28.0358
-20.3259
-14.6024
-10.3655
-7.2535
-4.99559
-3.38275
-2.25108
-1.47205
-0.946194
-0.598095
-0.372043
-0.227968
-0.137826
-0.0825113
-0.0493718
-0.0302948
-0.0203296
-0.0167599
444.856
488.928
581.472
731.725
954.595
1271.91
1714.87
2328.16
3174.45
4342.26
5960.63
8219.08
0
-8080.63
-5856.35
-4260.97
-3107.72
-2269.35
-1658.3
-1212.08
-885.939
-647.59
-473.403
-346.024
-252.803
-184.594
-134.757
-98.4131
-71.9338
-52.6147
-38.4646
-28.0451
-20.3365
-14.6225
-10.3967
-7.29308
-5.03899
-3.4255
-2.28984
-1.50494
-0.972593
-0.618326
-0.386942
-0.238573
-0.145161
-0.0874781
-0.0527057
-0.0325729
-0.022002
-0.0181933
446.704
491.218
584.712
736.641
962.312
1284.28
1734.89
2360.56
3226.44
4424.23
6084.27
8390.23
0
-8248.93
-5977.95
-4341.6
-3158.95
-2301.29
-1678
-1224.24
-893.492
-652.296
-476.319
-347.818
-253.91
-185.287
-135.198
-98.6908
-72.0995
-52.7041
-38.5071
-28.0654
-20.3526
-14.6448
-10.4284
-7.33286
-5.08299
-3.46947
-2.33035
-1.53988
-1.00111
-0.64054
-0.403565
-0.250589
-0.1536
-0.0932767
-0.0566535
-0.0353055
-0.0240278
-0.0199349
448.725
493.69
588.116
741.65
969.931
1296.06
1753.22
2388.84
3269.12
4486.48
6170.3
8499.16
0
-8356.06
-6062.55
-4402.82
-3200.85
-2329.2
-1696.16
-1235.88
-900.933
-657.046
-479.33
-349.707
-255.093
-186.037
-135.678
-98.997
-72.2859
-52.8083
-38.5597
-28.0916
-20.3714
-14.6674
-10.4596
-7.37201
-5.12682
-3.51394
-2.37199
-1.57636
-1.03136
-0.664467
-0.42174
-0.263923
-0.163099
-0.0998964
-0.0612208
-0.0385051
-0.0264204
-0.0219963
450.681
496.032
591.254
746.151
976.632
1306.15
1768.35
2411.23
3301.41
4531.03
6228.23
8568.53
0
-8424.32
-6119.49
-4446.68
-3232.54
-2351.26
-1711.13
-1245.85
-907.487
-661.315
-482.078
-351.458
-256.207
-186.753
-136.144
-99.2967
-72.4705
-52.9129
-38.6131
-28.1181
-20.3895
-14.6888
-10.4892
-7.40978
-5.16984
-3.55832
-2.4142
-1.61392
-1.06296
-0.689822
-0.441275
-0.278454
-0.173594
-0.107306
-0.0663963
-0.0421689
-0.0291786
-0.0243747
452.372
497.993
593.795
749.696
981.844
1313.95
1779.84
2427.65
3324.12
4561.06
6265.72
8611.9
0
-8467.17
-6156.28
-4476.09
-3254.85
-2367.41
-1722.45
-1253.6
-912.714
-664.775
-484.328
-352.904
-257.138
-187.36
-136.544
-99.5577
-72.6321
-53.0039
-38.6584
-28.1395
-20.4039
-14.7071
-10.5162
-7.44552
-5.21153
-3.60212
-2.45652
-1.65212
-1.09555
-0.716328
-0.461967
-0.294047
-0.184998
-0.115456
-0.072152
-0.0462778
-0.0322833
-0.0270464
453.616
499.406
595.585
752.159
985.444
1319.31
1787.59
2438.36
3338.36
4579.29
6288.11
8637.45
0
-8491.97
-6178.31
-4494.12
-3268.87
-2377.82
-1729.92
-1258.84
-916.309
-667.185
-485.907
-353.924
-257.801
-187.8
-136.841
-99.7537
-72.7528
-53.0696
-38.6881
-28.1512
-20.412
-14.721
-10.5399
-7.47881
-5.25156
-3.645
-2.4986
-1.69062
-1.12882
-0.743725
-0.483616
-0.310558
-0.197216
-0.124285
-0.0784458
-0.0507962
-0.0356927
-0.0299564
454.239
500.09
596.47
753.465
987.416
1322.11
1791.35
2443.39
3345.23
4588.12
6298.44
8649.05
0
-8503.45
-6188.51
-4502.66
-3275.63
-2382.92
-1733.64
-1261.48
-918.138
-668.412
-486.706
-354.441
-258.144
-188.037
-137.008
-99.8659
-72.8198
-53.1011
-38.6966
-28.1497
-20.4119
-14.7295
-10.5599
-7.50948
-5.28977
-3.68679
-2.5402
-1.72917
-1.16251
-0.771782
-0.506033
-0.327843
-0.210145
-0.133721
-0.0852251
-0.055674
-0.0393388
-0.0329977
)
;

boundaryField
{
    frontHeated
    {
        type            zeroGradient;
    }
    defaultFaces
    {
        type            empty;
    }
}


// ************************************************************************* //
