/*--------------------------------*- C++ -*----------------------------------*\
  =========                 |
  \\      /  F ield         | OpenFOAM: The Open Source CFD Toolbox
   \\    /   O peration     | Website:  https://openfoam.org
    \\  /    A nd           | Version:  dev
     \\/     M anipulation  |
\*---------------------------------------------------------------------------*/
FoamFile
{
    format      ascii;
    class       volScalarField;
    location    "0.0989546";
    object      epsilon;
}
// * * * * * * * * * * * * * * * * * * * * * * * * * * * * * * * * * * * * * //

dimensions      [0 2 -3 0 0 0 0];

internalField   nonuniform List<scalar> 
100
(
0.267569
0.163433
0.154107
0.158445
0.164614
0.17054
0.175833
0.180357
0.184079
0.187033
0.189291
0.190959
0.192197
0.193253
0.194468
0.196257
0.199039
0.203155
0.208777
0.215873
0.22423
0.233527
0.243439
0.253721
0.264299
0.275342
0.28737
0.301413
0.31933
0.344398
0.382474
0.444512
0.552838
0.754811
1.19659
1.97489
5.44438
3.30777
2.41079
1.63006
1.20915
0.959299
0.797088
0.682606
0.595497
0.524934
0.465055
0.412699
0.366199
0.324693
0.287729
0.255031
0.226378
0.201535
0.18023
0.162158
0.146986
0.134375
0.123986
0.115503
0.108632
0.103108
0.0987007
0.0952082
0.0924598
0.0903113
0.0886428
0.0873553
0.0863678
0.0856152
0.0850449
0.0846153
0.0842935
0.0840537
0.083876
0.083745
0.0836489
0.0835787
0.0835277
0.0834908
0.0834642
0.0834452
0.0834316
0.0834219
0.0834152
0.0834115
0.0834161
0.0834653
0.0836268
0.0839344
0.0844998
0.0855295
0.0873336
0.0908287
0.0987703
0.121515
0.214365
0.827576
5.8755
13.614
)
;

boundaryField
{
    frontHeated
    {
        type            epsilonWallFunction;
        value           uniform 0.267569;
    }
    backOutlet
    {
        type            inletOutlet;
        inletValue      uniform 0.1;
        value           uniform 13.614;
    }
    defaultFaces
    {
        type            empty;
    }
}


// ************************************************************************* //
