/*--------------------------------*- C++ -*----------------------------------*\
  =========                 |
  \\      /  F ield         | OpenFOAM: The Open Source CFD Toolbox
   \\    /   O peration     | Website:  https://openfoam.org
    \\  /    A nd           | Version:  dev
     \\/     M anipulation  |
\*---------------------------------------------------------------------------*/
FoamFile
{
    format      ascii;
    class       volScalarField;
    location    "0.202437";
    object      rhoSmear;
}
// * * * * * * * * * * * * * * * * * * * * * * * * * * * * * * * * * * * * * //

dimensions      [1 -3 -1 0 0 0 0];

internalField   nonuniform List<scalar> 
100
(
2.99789e-16
3.33099e-16
4.0342e-16
5.18566e-16
6.91329e-16
9.40908e-16
1.29503e-15
1.79305e-15
2.49029e-15
3.46423e-15
4.82309e-15
6.71785e-15
9.35903e-15
1.30401e-14
1.81701e-14
2.5319e-14
3.5281e-14
4.91632e-14
6.8508e-14
9.54648e-14
1.33029e-13
1.85374e-13
2.58316e-13
3.5996e-13
5.01599e-13
6.98972e-13
9.74008e-13
1.35727e-12
1.89133e-12
2.63555e-12
3.6726e-12
5.11772e-12
7.13148e-12
9.93762e-12
1.38479e-11
1.92969e-11
2.689e-11
3.74709e-11
5.22152e-11
7.27612e-11
1.01392e-10
1.41288e-10
1.96883e-10
2.74354e-10
3.82308e-10
5.32742e-10
7.42369e-10
1.03448e-09
1.44154e-09
2.00876e-09
2.79918e-09
3.90062e-09
5.43547e-09
7.57425e-09
1.05546e-08
1.47077e-08
2.0495e-08
2.85595e-08
3.97973e-08
5.54571e-08
7.72787e-08
1.07687e-07
1.5006e-07
2.09107e-07
2.91388e-07
4.06045e-07
5.65818e-07
7.8846e-07
1.09871e-06
1.53104e-06
2.13348e-06
2.97297e-06
4.1428e-06
5.77294e-06
8.04451e-06
1.12099e-05
1.56209e-05
2.17675e-05
3.03327e-05
4.22682e-05
5.89002e-05
8.20767e-05
0.000114373
0.000159377
0
0
0
0
0
0
0
0
0
0
0
0
0
0
0
0
)
;

boundaryField
{
    frontHeated
    {
        type            zeroGradient;
    }
    backOutlet
    {
        type            zeroGradient;
    }
    defaultFaces
    {
        type            empty;
    }
}


// ************************************************************************* //
