/*--------------------------------*- C++ -*----------------------------------*\
  =========                 |
  \\      /  F ield         | OpenFOAM: The Open Source CFD Toolbox
   \\    /   O peration     | Website:  https://openfoam.org
    \\  /    A nd           | Version:  dev
     \\/     M anipulation  |
\*---------------------------------------------------------------------------*/
FoamFile
{
    format      ascii;
    class       volVectorField;
    location    "0.202437";
    object      U;
}
// * * * * * * * * * * * * * * * * * * * * * * * * * * * * * * * * * * * * * //

dimensions      [0 1 -1 0 0 0 0];

internalField   nonuniform List<vector> 
100
(
(0.0359565 0 0)
(0.0932006 0 0)
(0.143355 0 0)
(0.191511 0 0)
(0.239546 0 0)
(0.28776 0 0)
(0.336054 0 0)
(0.384344 0 0)
(0.432612 0 0)
(0.480871 0 0)
(0.52913 0 0)
(0.577397 0 0)
(0.625672 0 0)
(0.673962 0 0)
(0.722272 0 0)
(0.770609 0 0)
(0.818984 0 0)
(0.867403 0 0)
(0.915875 0 0)
(0.964406 0 0)
(1.013 0 0)
(1.06165 0 0)
(1.11037 0 0)
(1.15914 0 0)
(1.20796 0 0)
(1.2568 0 0)
(1.30564 0 0)
(1.35444 0 0)
(1.40318 0 0)
(1.45178 0 0)
(1.5002 0 0)
(1.54835 0 0)
(1.59616 0 0)
(1.64352 0 0)
(1.69034 0 0)
(1.73652 0 0)
(1.78198 0 0)
(1.82661 0 0)
(1.87024 0 0)
(1.91272 0 0)
(1.95391 0 0)
(1.99372 0 0)
(2.03207 0 0)
(2.06894 0 0)
(2.10425 0 0)
(2.13794 0 0)
(2.16992 0 0)
(2.20012 0 0)
(2.22847 0 0)
(2.2549 0 0)
(2.27937 0 0)
(2.30184 0 0)
(2.32229 0 0)
(2.3407 0 0)
(2.35705 0 0)
(2.37135 0 0)
(2.38366 0 0)
(2.394 0 0)
(2.40237 0 0)
(2.40892 0 0)
(2.41405 0 0)
(2.41833 0 0)
(2.42215 0 0)
(2.4256 0 0)
(2.42842 0 0)
(2.42987 0 0)
(2.42831 0 0)
(2.42092 0 0)
(2.40418 0 0)
(2.37497 0 0)
(2.3322 0 0)
(2.27793 0 0)
(2.21779 0 0)
(2.1604 0 0)
(2.11617 0 0)
(2.09556 0 0)
(2.10727 0 0)
(2.15652 0 0)
(2.244 0 0)
(2.36525 0 0)
(2.50593 0 0)
(2.67269 0 0)
(2.81228 0 0)
(4.57088 0 0)
(4.58684 0 0)
(4.61331 0 0)
(4.64427 0 0)
(4.6568 0 0)
(4.65697 0 0)
(4.65377 0 0)
(4.65002 0 0)
(4.64717 0 0)
(4.64481 0 0)
(4.64289 0 0)
(4.6398 0 0)
(4.64136 0 0)
(4.61735 0 0)
(4.71543 0 0)
(4.2172 0 0)
(6.76031 0 0)
)
;

boundaryField
{
    frontHeated
    {
        type            noSlip;
    }
    backOutlet
    {
        type            pressureInletOutletVelocity;
        value           uniform (6.76031 0 0);
    }
    defaultFaces
    {
        type            empty;
    }
}


// ************************************************************************* //
