/*--------------------------------*- C++ -*----------------------------------*\
  =========                 |
  \\      /  F ield         | OpenFOAM: The Open Source CFD Toolbox
   \\    /   O peration     | Website:  https://openfoam.org
    \\  /    A nd           | Version:  dev
     \\/     M anipulation  |
\*---------------------------------------------------------------------------*/
FoamFile
{
    format      ascii;
    class       volScalarField;
    location    "0.181843";
    object      rhoSmear;
}
// * * * * * * * * * * * * * * * * * * * * * * * * * * * * * * * * * * * * * //

dimensions      [1 -3 -1 0 0 0 0];

internalField   nonuniform List<scalar> 
100
(
6.8417e-15
7.60188e-15
9.20673e-15
1.18345e-14
1.57773e-14
2.14731e-14
2.95548e-14
4.09203e-14
5.68326e-14
7.90596e-14
1.10071e-13
1.53313e-13
2.13589e-13
2.97597e-13
4.14672e-13
5.77821e-13
8.05173e-13
1.12199e-12
1.56347e-12
2.17867e-12
3.03594e-12
4.23054e-12
5.8952e-12
8.21489e-12
1.14473e-11
1.59517e-11
2.22285e-11
3.09751e-11
4.31634e-11
6.01476e-11
8.38149e-11
1.16795e-10
1.62752e-10
2.26793e-10
3.16033e-10
4.40388e-10
6.13675e-10
8.55148e-10
1.19164e-09
1.66053e-09
2.31393e-09
3.22443e-09
4.4932e-09
6.26122e-09
8.72492e-09
1.21581e-08
1.69421e-08
2.36086e-08
3.28983e-08
4.58433e-08
6.3882e-08
8.90188e-08
1.24046e-07
1.72857e-07
2.40874e-07
3.35655e-07
4.67731e-07
6.51777e-07
9.08242e-07
1.26562e-06
1.76363e-06
2.45759e-06
3.42463e-06
4.77217e-06
6.64996e-06
9.26663e-06
1.29129e-05
1.7994e-05
2.50744e-05
3.49408e-05
4.86896e-05
6.78483e-05
9.45457e-05
0.000131748
0
0
0
0
0
0
0
0
0
0
0
-0.000131763
-9.45623e-05
-6.78684e-05
-4.87155e-05
-3.49754e-05
-2.51214e-05
-1.80587e-05
-1.30026e-05
-9.39112e-06
-6.82314e-06
-5.01328e-06
-3.76046e-06
-2.92546e-06
-2.41552e-06
-2.17397e-06
)
;

boundaryField
{
    frontHeated
    {
        type            zeroGradient;
    }
    backOutlet
    {
        type            zeroGradient;
    }
    defaultFaces
    {
        type            empty;
    }
}


// ************************************************************************* //
