/*--------------------------------*- C++ -*----------------------------------*\
  =========                 |
  \\      /  F ield         | OpenFOAM: The Open Source CFD Toolbox
   \\    /   O peration     | Website:  https://openfoam.org
    \\  /    A nd           | Version:  dev
     \\/     M anipulation  |
\*---------------------------------------------------------------------------*/
FoamFile
{
    format      ascii;
    class       volScalarField;
    location    "0.177621";
    object      rhoSmear;
}
// * * * * * * * * * * * * * * * * * * * * * * * * * * * * * * * * * * * * * //

dimensions      [1 -3 -1 0 0 0 0];

internalField   nonuniform List<scalar> 
100
(
1.31813e-14
1.46459e-14
1.77378e-14
2.28005e-14
3.03967e-14
4.13703e-14
5.69405e-14
7.88375e-14
1.09494e-13
1.52317e-13
2.12064e-13
2.95373e-13
4.11502e-13
5.73353e-13
7.98911e-13
1.11324e-12
1.55125e-12
2.16163e-12
3.01219e-12
4.19744e-12
5.84907e-12
8.1506e-12
1.13578e-11
1.58269e-11
2.20545e-11
3.07327e-11
4.28256e-11
5.96769e-11
8.3159e-11
1.15881e-10
1.61479e-10
2.25018e-10
3.1356e-10
4.36942e-10
6.08873e-10
8.48456e-10
1.18231e-09
1.64754e-09
2.29582e-09
3.1992e-09
4.45804e-09
6.21222e-09
8.65664e-09
1.20629e-08
1.68095e-08
2.34238e-08
3.26408e-08
4.54845e-08
6.33821e-08
8.83221e-08
1.23076e-07
1.71504e-07
2.38989e-07
3.33028e-07
4.6407e-07
6.46676e-07
9.01134e-07
1.25572e-06
1.74983e-06
2.43836e-06
3.39783e-06
4.73482e-06
6.59792e-06
9.19411e-06
1.28119e-05
1.78532e-05
2.48782e-05
3.46674e-05
4.83085e-05
6.73173e-05
9.38058e-05
0.000130717
0
0
0
0
0
0
0
0
0
0
-0.000130719
-9.3808e-05
-6.732e-05
-4.83121e-05
-3.46721e-05
-2.48845e-05
-1.78619e-05
-1.2824e-05
-9.21098e-06
-6.62138e-06
-4.7675e-06
-3.44333e-06
-2.50176e-06
-1.83816e-06
-1.3788e-06
-1.07265e-06
-8.85671e-07
-7.97104e-07
)
;

boundaryField
{
    frontHeated
    {
        type            zeroGradient;
    }
    backOutlet
    {
        type            zeroGradient;
    }
    defaultFaces
    {
        type            empty;
    }
}


// ************************************************************************* //
