/*--------------------------------*- C++ -*----------------------------------*\
  =========                 |
  \\      /  F ield         | OpenFOAM: The Open Source CFD Toolbox
   \\    /   O peration     | Website:  https://openfoam.org
    \\  /    A nd           | Version:  dev
     \\/     M anipulation  |
\*---------------------------------------------------------------------------*/
FoamFile
{
    format      ascii;
    class       volScalarField;
    location    "0.177621";
    object      thermo:rho;
}
// * * * * * * * * * * * * * * * * * * * * * * * * * * * * * * * * * * * * * //

dimensions      [1 -3 0 0 0 0 0];

internalField   nonuniform List<scalar> 
100
(
0.0914544
0.101631
0.104725
0.105935
0.106488
0.106766
0.106909
0.106979
0.107005
0.107005
0.106988
0.106959
0.106923
0.106882
0.10684
0.106798
0.106756
0.106717
0.106681
0.106649
0.106619
0.106594
0.10657
0.106548
0.106526
0.106501
0.106472
0.106435
0.106386
0.106323
0.106239
0.106132
0.105995
0.105825
0.105617
0.105365
0.105066
0.104715
0.104308
0.103841
0.103311
0.102716
0.102052
0.101317
0.100511
0.0996316
0.0986778
0.0976495
0.0965466
0.0953698
0.0941201
0.0927988
0.0914093
0.0899539
0.0884353
0.0868619
0.0852479
0.0836048
0.081932
0.0802119
0.0784188
0.0765317
0.074546
0.0724798
0.0703735
0.0682823
0.0662669
0.0643532
0.0626751
0.0605503
0.0616116
0.0428051
490.027
877.514
916.537
938.798
951.578
958.964
963.261
965.782
967.272
968.157
968.683
969.001
969.198
969.321
969.401
969.464
969.5
969.522
969.538
969.552
969.528
969.528
969.527
969.526
969.55
969.538
969.426
969.301
)
;

boundaryField
{
    frontHeated
    {
        type            calculated;
        value           uniform 0.0562093;
    }
    backOutlet
    {
        type            calculated;
        value           uniform 969.301;
    }
    defaultFaces
    {
        type            empty;
    }
}


// ************************************************************************* //
