/*--------------------------------*- C++ -*----------------------------------*\
  =========                 |
  \\      /  F ield         | OpenFOAM: The Open Source CFD Toolbox
   \\    /   O peration     | Website:  https://openfoam.org
    \\  /    A nd           | Version:  dev
     \\/     M anipulation  |
\*---------------------------------------------------------------------------*/
FoamFile
{
    format      ascii;
    class       surfaceScalarField;
    location    "0.243786";
    object      phi;
}
// * * * * * * * * * * * * * * * * * * * * * * * * * * * * * * * * * * * * * //

dimensions      [0 3 -1 0 0 0 0];

internalField   nonuniform List<scalar> 
99
(
0.0601017
0.110544
0.159115
0.206979
0.254515
0.30189
0.349189
0.39646
0.44373
0.491021
0.538346
0.585718
0.633145
0.680638
0.728205
0.775856
0.823598
0.871441
0.919394
0.967465
1.01567
1.064
1.11249
1.16114
1.20996
1.25895
1.30815
1.35754
1.40716
1.45701
1.5071
1.55745
1.60808
1.659
1.71023
1.76179
1.81369
1.86595
1.91861
1.97167
2.02517
2.07914
2.1336
2.18858
2.24413
2.30028
2.35707
2.41456
2.47279
2.53182
2.59171
2.65253
2.71437
2.77729
2.8414
2.90679
2.97357
3.04186
3.11178
3.18347
3.25709
3.33279
3.41076
3.49117
3.57424
3.66016
3.74919
3.84156
3.93754
4.03742
4.14148
4.25006
4.36349
4.48213
4.60635
4.73653
4.8731
5.01646
5.16707
5.3254
5.49194
5.6672
5.85177
6.04624
6.25122
6.46733
6.69527
6.93576
7.18979
7.4584
7.74216
8.04247
8.35943
8.69366
9.04439
9.3844
10.39
11.8865
15.6435
)
;

boundaryField
{
    frontHeated
    {
        type            calculated;
        value           uniform 0;
    }
    backOutlet
    {
        type            calculated;
        value           uniform 28.1692;
    }
    defaultFaces
    {
        type            empty;
        value           nonuniform List<scalar> 0();
    }
}


// ************************************************************************* //
