/*--------------------------------*- C++ -*----------------------------------*\
  =========                 |
  \\      /  F ield         | OpenFOAM: The Open Source CFD Toolbox
   \\    /   O peration     | Website:  https://openfoam.org
    \\  /    A nd           | Version:  dev
     \\/     M anipulation  |
\*---------------------------------------------------------------------------*/
FoamFile
{
    format      ascii;
    class       volScalarField;
    location    "0.243786";
    object      T;
}
// * * * * * * * * * * * * * * * * * * * * * * * * * * * * * * * * * * * * * //

dimensions      [0 0 0 1 0 0 0];

internalField   nonuniform List<scalar> 
100
(
241.948
204.475
192.679
187.767
185.383
184.106
183.374
182.937
182.67
182.508
182.413
182.364
182.347
182.352
182.372
182.405
182.445
182.491
182.54
182.592
182.643
182.695
182.745
182.793
182.838
182.881
182.921
182.958
182.992
183.025
183.056
183.087
183.119
183.153
183.191
183.235
183.286
183.348
183.422
183.512
183.619
183.748
183.901
184.081
184.291
184.536
184.818
185.14
185.506
185.92
186.384
186.903
187.478
188.115
188.815
189.582
190.42
191.332
192.32
193.389
194.541
195.779
197.108
198.53
200.048
201.665
203.384
205.209
207.141
209.183
211.338
213.61
216.003
218.522
221.172
223.96
226.893
229.977
233.218
236.621
240.188
243.919
247.811
251.858
256.054
260.385
264.832
269.37
273.979
278.67
283.487
288.456
293.677
299.169
304.938
310.814
314.251
384.331
384.879
363.525
)
;

boundaryField
{
    frontHeated
    {
        type            fixedValue;
        value           uniform 385.15;
    }
    backOutlet
    {
        type            fixedValue;
        value           uniform 385.15;
    }
    defaultFaces
    {
        type            empty;
    }
}


// ************************************************************************* //
