/*--------------------------------*- C++ -*----------------------------------*\
  =========                 |
  \\      /  F ield         | OpenFOAM: The Open Source CFD Toolbox
   \\    /   O peration     | Website:  https://openfoam.org
    \\  /    A nd           | Version:  dev
     \\/     M anipulation  |
\*---------------------------------------------------------------------------*/
FoamFile
{
    format      ascii;
    class       volVectorField;
    location    "0.243786";
    object      U;
}
// * * * * * * * * * * * * * * * * * * * * * * * * * * * * * * * * * * * * * //

dimensions      [0 1 -1 0 0 0 0];

internalField   nonuniform List<vector> 
100
(
(0.0283484 0 0)
(0.0761905 0 0)
(0.117277 0 0)
(0.155352 0 0)
(0.1926 0 0)
(0.229843 0 0)
(0.267253 0 0)
(0.304792 0 0)
(0.342397 0 0)
(0.380026 0 0)
(0.417663 0 0)
(0.455303 0 0)
(0.492945 0 0)
(0.530592 0 0)
(0.568245 0 0)
(0.605906 0 0)
(0.643581 0 0)
(0.681273 0 0)
(0.718991 0 0)
(0.756739 0 0)
(0.794526 0 0)
(0.832356 0 0)
(0.870235 0 0)
(0.908167 0 0)
(0.946153 0 0)
(0.984194 0 0)
(1.02229 0 0)
(1.06042 0 0)
(1.0986 0 0)
(1.13679 0 0)
(1.17498 0 0)
(1.21315 0 0)
(1.25126 0 0)
(1.28928 0 0)
(1.32715 0 0)
(1.36484 0 0)
(1.40227 0 0)
(1.43937 0 0)
(1.47608 0 0)
(1.51231 0 0)
(1.54798 0 0)
(1.58299 0 0)
(1.61727 0 0)
(1.6507 0 0)
(1.68318 0 0)
(1.71461 0 0)
(1.74488 0 0)
(1.77387 0 0)
(1.80151 0 0)
(1.8277 0 0)
(1.85238 0 0)
(1.87549 0 0)
(1.89698 0 0)
(1.91678 0 0)
(1.93485 0 0)
(1.95115 0 0)
(1.96563 0 0)
(1.97826 0 0)
(1.98901 0 0)
(1.99785 0 0)
(2.00477 0 0)
(2.00977 0 0)
(2.01286 0 0)
(2.01405 0 0)
(2.01337 0 0)
(2.01086 0 0)
(2.00658 0 0)
(2.00059 0 0)
(1.99301 0 0)
(1.98397 0 0)
(1.97361 0 0)
(1.9621 0 0)
(1.94958 0 0)
(1.93611 0 0)
(1.92172 0 0)
(1.90629 0 0)
(1.88954 0 0)
(1.87104 0 0)
(1.85017 0 0)
(1.82623 0 0)
(1.79857 0 0)
(1.76667 0 0)
(1.73052 0 0)
(1.69076 0 0)
(1.64849 0 0)
(1.60516 0 0)
(1.56295 0 0)
(1.52548 0 0)
(1.49819 0 0)
(1.4839 0 0)
(1.4809 0 0)
(1.4848 0 0)
(1.4891 0 0)
(1.50228 0 0)
(1.54051 0 0)
(1.65223 0 0)
(1.00269 0 0)
(4.62777 0 0)
(-2.64085 0 0)
(33.2225 0 0)
)
;

boundaryField
{
    frontHeated
    {
        type            noSlip;
    }
    backOutlet
    {
        type            pressureInletOutletVelocity;
        value           uniform (33.2225 0 0);
    }
    defaultFaces
    {
        type            empty;
    }
}


// ************************************************************************* //
