/*--------------------------------*- C++ -*----------------------------------*\
  =========                 |
  \\      /  F ield         | OpenFOAM: The Open Source CFD Toolbox
   \\    /   O peration     | Website:  https://openfoam.org
    \\  /    A nd           | Version:  dev
     \\/     M anipulation  |
\*---------------------------------------------------------------------------*/
FoamFile
{
    format      ascii;
    class       volScalarField;
    location    "0.227676";
    object      T;
}
// * * * * * * * * * * * * * * * * * * * * * * * * * * * * * * * * * * * * * //

dimensions      [0 0 0 1 0 0 0];

internalField   nonuniform List<scalar> 
100
(
240.494
205.881
195.426
191.192
189.178
188.116
187.518
187.169
186.963
186.847
186.788
186.768
186.774
186.799
186.838
186.886
186.94
186.997
187.056
187.116
187.175
187.232
187.286
187.337
187.384
187.429
187.47
187.509
187.547
187.584
187.622
187.663
187.709
187.763
187.827
187.905
187.999
188.113
188.252
188.418
188.617
188.851
189.127
189.448
189.818
190.242
190.724
191.269
191.882
192.566
193.326
194.167
195.092
196.107
197.216
198.424
199.734
201.152
202.683
204.331
206.101
207.998
210.026
212.189
214.492
216.937
219.53
222.276
225.182
228.256
231.509
234.953
238.601
242.467
246.559
250.886
255.448
260.244
265.264
270.494
275.914
281.503
287.211
293.074
298.924
304.584
310.214
316.306
323.612
330.606
339.251
350.23
359.496
382.018
385.12
385.122
385.124
385.125
385.127
384.821
)
;

boundaryField
{
    frontHeated
    {
        type            fixedValue;
        value           uniform 385.15;
    }
    backOutlet
    {
        type            fixedValue;
        value           uniform 385.15;
    }
    defaultFaces
    {
        type            empty;
    }
}


// ************************************************************************* //
