/*--------------------------------*- C++ -*----------------------------------*\
  =========                 |
  \\      /  F ield         | OpenFOAM: The Open Source CFD Toolbox
   \\    /   O peration     | Website:  https://openfoam.org
    \\  /    A nd           | Version:  dev
     \\/     M anipulation  |
\*---------------------------------------------------------------------------*/
FoamFile
{
    format      ascii;
    class       volScalarField;
    location    "0.198433";
    object      T;
}
// * * * * * * * * * * * * * * * * * * * * * * * * * * * * * * * * * * * * * //

dimensions      [0 0 0 1 0 0 0];

internalField   nonuniform List<scalar> 
100
(
237.736
209.216
201.193
198.085
196.651
195.917
195.52
195.303
195.192
195.145
195.141
195.165
195.209
195.265
195.33
195.399
195.47
195.541
195.609
195.675
195.736
195.792
195.844
195.891
195.934
195.975
196.016
196.058
196.106
196.163
196.233
196.32
196.431
196.57
196.745
196.96
197.223
197.541
197.92
198.367
198.89
199.496
200.191
200.982
201.876
202.881
204.003
205.249
206.626
208.143
209.805
211.622
213.6
215.748
218.074
220.586
223.293
226.202
229.32
232.649
236.192
239.957
243.956
248.213
252.761
257.639
262.885
268.529
274.581
281.031
287.846
294.972
302.344
309.894
317.555
325.271
332.946
340.645
347.48
357.74
346.178
385.121
385.124
385.126
385.128
385.13
385.131
385.133
385.135
385.136
385.138
385.139
385.141
385.142
385.143
385.144
385.145
385.146
385.147
385.13
)
;

boundaryField
{
    frontHeated
    {
        type            fixedValue;
        value           uniform 385.15;
    }
    backOutlet
    {
        type            fixedValue;
        value           uniform 385.15;
    }
    defaultFaces
    {
        type            empty;
    }
}


// ************************************************************************* //
