/*--------------------------------*- C++ -*----------------------------------*\
  =========                 |
  \\      /  F ield         | OpenFOAM: The Open Source CFD Toolbox
   \\    /   O peration     | Website:  https://openfoam.org
    \\  /    A nd           | Version:  dev
     \\/     M anipulation  |
\*---------------------------------------------------------------------------*/
FoamFile
{
    format      ascii;
    class       volScalarField;
    location    "0.215215";
    object      thermo:rho;
}
// * * * * * * * * * * * * * * * * * * * * * * * * * * * * * * * * * * * * * //

dimensions      [1 -3 0 0 0 0 0];

internalField   nonuniform List<scalar> 
100
(
0.0904906
0.104529
0.109509
0.111622
0.112642
0.113181
0.113482
0.113655
0.113753
0.113804
0.113825
0.113825
0.113811
0.113788
0.113758
0.113724
0.113687
0.113648
0.11361
0.113572
0.113536
0.113501
0.113469
0.113439
0.113411
0.113385
0.113361
0.113338
0.113314
0.11329
0.113262
0.113231
0.113193
0.113147
0.11309
0.113021
0.112935
0.112832
0.112707
0.112558
0.112382
0.112176
0.111938
0.111665
0.111353
0.111002
0.110608
0.11017
0.109685
0.109153
0.10857
0.107937
0.107252
0.106515
0.105724
0.104879
0.10398
0.103028
0.102023
0.100965
0.0998558
0.0986977
0.0974927
0.0962434
0.0949521
0.0936201
0.0922478
0.0908347
0.0893795
0.0878811
0.0863395
0.0847567
0.0831373
0.0814889
0.0798211
0.0781458
0.0764754
0.0748223
0.073198
0.0716132
0.0700885
0.0685829
0.0674242
0.0662227
0.0645506
0.0624114
0.0602076
0.0582277
0.0602077
0.0389407
712.708
887.917
928.08
959.951
952.82
957.621
958.882
957.721
929.41
794.764
)
;

boundaryField
{
    frontHeated
    {
        type            calculated;
        value           uniform 0.0562093;
    }
    backOutlet
    {
        type            calculated;
        value           uniform 794.732;
    }
    defaultFaces
    {
        type            empty;
    }
}


// ************************************************************************* //
