/*--------------------------------*- C++ -*----------------------------------*\
  =========                 |
  \\      /  F ield         | OpenFOAM: The Open Source CFD Toolbox
   \\    /   O peration     | Website:  https://openfoam.org
    \\  /    A nd           | Version:  dev
     \\/     M anipulation  |
\*---------------------------------------------------------------------------*/
FoamFile
{
    format      ascii;
    class       volScalarField;
    location    "0.086968";
    object      p;
}
// * * * * * * * * * * * * * * * * * * * * * * * * * * * * * * * * * * * * * //

dimensions      [1 -1 -2 0 0 0 0];

internalField   nonuniform List<scalar> 
100
(
21587.2
21587.2
21587.2
21587.2
21587.2
21587.2
21587.1
21587.1
21587.1
21587.1
21587.1
21587.1
21587
21587
21587
21587
21586.9
21586.9
21586.9
21586.8
21586.8
21586.7
21586.7
21586.6
21586.6
21586.5
21586.4
21586.3
21586.2
21586.1
21585.8
21585.9
21693.3
21246.7
20968.1
20789.8
20599
20399.6
20205.4
20012.3
19818.9
19625.4
19431.9
19237.9
19043.5
18848.6
18653
18456.7
18259.6
18061.6
17862.8
17663.1
17462.7
17261.5
17059.7
16857.4
16654.6
16451.4
16248
16044.3
15840.4
15636.4
15432.3
15228.2
15024
14819.7
14615.4
14411.1
14206.8
14002.4
13798.1
13593.8
13389.4
13185.1
12980.7
12776.4
12572
12367.6
12163.3
11958.9
11754.6
11550.2
11345.9
11141.5
10937.2
10732.8
10528.4
10324
10120.7
10000
10000
10000
10000
10000
10000
10000
10000
10000
10000
10000
)
;

boundaryField
{
    frontHeated
    {
        type            calculated;
        value           uniform 21587.2;
    }
    backOutlet
    {
        type            calculated;
        value           uniform 10000;
    }
    defaultFaces
    {
        type            empty;
    }
}


// ************************************************************************* //
