/*--------------------------------*- C++ -*----------------------------------*\
  =========                 |
  \\      /  F ield         | OpenFOAM: The Open Source CFD Toolbox
   \\    /   O peration     | Website:  https://openfoam.org
    \\  /    A nd           | Version:  dev
     \\/     M anipulation  |
\*---------------------------------------------------------------------------*/
FoamFile
{
    format      ascii;
    class       volVectorField;
    location    "0.270031";
    object      U;
}
// * * * * * * * * * * * * * * * * * * * * * * * * * * * * * * * * * * * * * //

dimensions      [0 1 -1 0 0 0 0];

internalField   nonuniform List<vector> 
100
(
(8.41133e-05 0 0)
(0.00018118 0 0)
(0.00029154 0 0)
(0.000391659 0 0)
(0.000458598 0 0)
(0.000472187 0 0)
(0.000422427 0 0)
(0.000320379 0 0)
(0.000212169 0 0)
(0.000198336 0 0)
(0.000109596 0 0)
(0.000120859 0 0)
(0.000186888 0 0)
(0.000210521 0 0)
(0.000218441 0 0)
(0.000218268 0 0)
(0.000215666 0 0)
(0.000212524 0 0)
(0.000209622 0 0)
(0.000207259 0 0)
(0.000205449 0 0)
(0.000204116 0 0)
(0.000203163 0 0)
(0.000202499 0 0)
(0.000202046 0 0)
(0.000201744 0 0)
(0.000201547 0 0)
(0.000201421 0 0)
(0.000201343 0 0)
(0.000201296 0 0)
(0.000201268 0 0)
(0.000201252 0 0)
(0.000201242 0 0)
(0.000201237 0 0)
(0.000201235 0 0)
(0.000201234 0 0)
(0.000201233 0 0)
(0.000201233 0 0)
(0.000201233 0 0)
(0.000201233 0 0)
(0.000201233 0 0)
(0.000201233 0 0)
(0.000201233 0 0)
(0.000201233 0 0)
(0.000201233 0 0)
(0.000201233 0 0)
(0.000201233 0 0)
(0.000201233 0 0)
(0.000201233 0 0)
(0.000201233 0 0)
(0.000201233 0 0)
(0.000201233 0 0)
(0.000201233 0 0)
(0.000201233 0 0)
(0.000201233 0 0)
(0.000201233 0 0)
(0.000201233 0 0)
(0.000201233 0 0)
(0.000201233 0 0)
(0.000201233 0 0)
(0.000201233 0 0)
(0.000201233 0 0)
(0.000201233 0 0)
(0.000201233 0 0)
(0.000201233 0 0)
(0.000201233 0 0)
(0.000201233 0 0)
(0.000201233 0 0)
(0.000201233 0 0)
(0.000201233 0 0)
(0.000201233 0 0)
(0.000201233 0 0)
(0.000201233 0 0)
(0.000201233 0 0)
(0.000201233 0 0)
(0.000201234 0 0)
(0.000201235 0 0)
(0.000201238 0 0)
(0.000201243 0 0)
(0.000201253 0 0)
(0.000201269 0 0)
(0.000201297 0 0)
(0.000201343 0 0)
(0.000201417 0 0)
(0.000201534 0 0)
(0.000201711 0 0)
(0.000201973 0 0)
(0.000202346 0 0)
(0.000202857 0 0)
(0.000203517 0 0)
(0.000204298 0 0)
(0.000205086 0 0)
(0.000205597 0 0)
(0.000205261 0 0)
(0.000203096 0 0)
(0.00019714 0 0)
(0.000184586 0 0)
(0.000163306 0 0)
(0.000135035 0 0)
(0.000116567 0 0)
)
;

boundaryField
{
    frontHeated
    {
        type            noSlip;
    }
    backOutlet
    {
        type            pressureInletOutletVelocity;
        value           uniform (0.000116567 0 0);
    }
    defaultFaces
    {
        type            empty;
    }
}


// ************************************************************************* //
