/*--------------------------------*- C++ -*----------------------------------*\
  =========                 |
  \\      /  F ield         | OpenFOAM: The Open Source CFD Toolbox
   \\    /   O peration     | Website:  https://openfoam.org
    \\  /    A nd           | Version:  dev
     \\/     M anipulation  |
\*---------------------------------------------------------------------------*/
FoamFile
{
    format      ascii;
    class       volVectorField;
    location    "0.234322";
    object      U;
}
// * * * * * * * * * * * * * * * * * * * * * * * * * * * * * * * * * * * * * //

dimensions      [0 1 -1 0 0 0 0];

internalField   nonuniform List<vector> 
100
(
(0.0299707 0 0)
(0.0798471 0 0)
(0.122819 0 0)
(0.162962 0 0)
(0.202443 0 0)
(0.241986 0 0)
(0.281696 0 0)
(0.32151 0 0)
(0.361365 0 0)
(0.401233 0 0)
(0.441103 0 0)
(0.480976 0 0)
(0.520853 0 0)
(0.560738 0 0)
(0.600633 0 0)
(0.640541 0 0)
(0.68047 0 0)
(0.720424 0 0)
(0.760413 0 0)
(0.800442 0 0)
(0.840519 0 0)
(0.88065 0 0)
(0.920839 0 0)
(0.961088 0 0)
(1.0014 0 0)
(1.04177 0 0)
(1.08219 0 0)
(1.12265 0 0)
(1.16314 0 0)
(1.20363 0 0)
(1.2441 0 0)
(1.28451 0 0)
(1.32483 0 0)
(1.36499 0 0)
(1.40495 0 0)
(1.44464 0 0)
(1.48398 0 0)
(1.52288 0 0)
(1.56127 0 0)
(1.59905 0 0)
(1.63612 0 0)
(1.67239 0 0)
(1.70776 0 0)
(1.74209 0 0)
(1.77528 0 0)
(1.8072 0 0)
(1.83776 0 0)
(1.86687 0 0)
(1.89445 0 0)
(1.92045 0 0)
(1.94481 0 0)
(1.96746 0 0)
(1.98836 0 0)
(2.00745 0 0)
(2.02468 0 0)
(2.04001 0 0)
(2.0534 0 0)
(2.06484 0 0)
(2.0743 0 0)
(2.08177 0 0)
(2.08726 0 0)
(2.09079 0 0)
(2.09238 0 0)
(2.09208 0 0)
(2.08994 0 0)
(2.08606 0 0)
(2.08057 0 0)
(2.07365 0 0)
(2.06551 0 0)
(2.05632 0 0)
(2.04622 0 0)
(2.03522 0 0)
(2.0232 0 0)
(2.00978 0 0)
(1.99434 0 0)
(1.97595 0 0)
(1.95355 0 0)
(1.92612 0 0)
(1.89302 0 0)
(1.85423 0 0)
(1.8106 0 0)
(1.76462 0 0)
(1.71889 0 0)
(1.67587 0 0)
(1.64095 0 0)
(1.62249 0 0)
(1.62577 0 0)
(1.64736 0 0)
(1.66851 0 0)
(1.6851 0 0)
(1.72736 0 0)
(1.78648 0 0)
(1.91205 0 0)
(1.98837 0 0)
(2.11947 0 0)
(3.09028 0 0)
(4.37291 0 0)
(4.77238 0 0)
(3.8591 0 0)
(8.1824 0 0)
)
;

boundaryField
{
    frontHeated
    {
        type            noSlip;
    }
    backOutlet
    {
        type            pressureInletOutletVelocity;
        value           uniform (8.1824 0 0);
    }
    defaultFaces
    {
        type            empty;
    }
}


// ************************************************************************* //
