/*--------------------------------*- C++ -*----------------------------------*\
  =========                 |
  \\      /  F ield         | OpenFOAM: The Open Source CFD Toolbox
   \\    /   O peration     | Website:  https://openfoam.org
    \\  /    A nd           | Version:  dev
     \\/     M anipulation  |
\*---------------------------------------------------------------------------*/
FoamFile
{
    format      ascii;
    class       volScalarField;
    location    "0.0869679";
    object      p;
}
// * * * * * * * * * * * * * * * * * * * * * * * * * * * * * * * * * * * * * //

dimensions      [1 -1 -2 0 0 0 0];

internalField   nonuniform List<scalar> 
100
(
21587.2
21587.2
21587.2
21587.2
21587.2
21587.2
21587.2
21587.1
21587.1
21587.1
21587.1
21587.1
21587.1
21587
21587
21587
21587
21586.9
21586.9
21586.8
21586.8
21586.8
21586.7
21586.6
21586.6
21586.5
21586.4
21586.3
21586.2
21586.1
21585.9
21585.9
21693.3
21246.7
20968.1
20789.8
20599.1
20399.7
20205.4
20012.4
19819
19625.5
19432
19238
19043.7
18848.7
18653.1
18456.8
18259.7
18061.7
17862.9
17663.2
17462.8
17261.6
17059.8
16857.5
16654.7
16451.5
16248
16044.4
15840.5
15636.5
15432.4
15228.2
15024
14819.8
14615.5
14411.2
14206.8
14002.5
13798.2
13593.8
13389.5
13185.1
12980.8
12776.4
12572
12367.7
12163.3
11959
11754.6
11550.2
11345.9
11141.5
10937.2
10732.8
10528.4
10324
10120.7
10000
10000
10000
10000
10000
10000
10000
10000
10000
10000
10000
)
;

boundaryField
{
    frontHeated
    {
        type            calculated;
        value           uniform 21587.2;
    }
    backOutlet
    {
        type            calculated;
        value           uniform 10000;
    }
    defaultFaces
    {
        type            empty;
    }
}


// ************************************************************************* //
