/*--------------------------------*- C++ -*----------------------------------*\
  =========                 |
  \\      /  F ield         | OpenFOAM: The Open Source CFD Toolbox
   \\    /   O peration     | Website:  https://openfoam.org
    \\  /    A nd           | Version:  dev
     \\/     M anipulation  |
\*---------------------------------------------------------------------------*/
FoamFile
{
    format      ascii;
    class       volScalarField;
    location    "0.196287";
    object      T;
}
// * * * * * * * * * * * * * * * * * * * * * * * * * * * * * * * * * * * * * //

dimensions      [0 0 0 1 0 0 0];

internalField   nonuniform List<scalar> 
100
(
237.589
209.545
201.702
198.673
197.28
196.568
196.185
195.977
195.872
195.83
195.83
195.857
195.903
195.962
196.028
196.098
196.171
196.242
196.311
196.376
196.437
196.493
196.544
196.59
196.633
196.674
196.715
196.759
196.809
196.87
196.945
197.04
197.16
197.311
197.501
197.735
198.02
198.364
198.773
199.255
199.818
200.468
201.212
202.058
203.014
204.085
205.28
206.606
208.071
209.681
211.445
213.372
215.468
217.743
220.205
222.863
225.726
228.801
232.093
235.604
239.338
243.304
247.521
252.019
256.838
262.024
267.614
273.631
280.075
286.918
294.108
301.576
309.245
317.046
324.902
332.74
340.638
347.638
357.925
345.817
385.121
385.124
385.126
385.128
385.13
385.132
385.133
385.135
385.136
385.138
385.139
385.141
385.142
385.143
385.144
385.145
385.146
385.147
385.148
385.134
)
;

boundaryField
{
    frontHeated
    {
        type            fixedValue;
        value           uniform 385.15;
    }
    backOutlet
    {
        type            fixedValue;
        value           uniform 385.15;
    }
    defaultFaces
    {
        type            empty;
    }
}


// ************************************************************************* //
