/*--------------------------------*- C++ -*----------------------------------*\
  =========                 |
  \\      /  F ield         | OpenFOAM: The Open Source CFD Toolbox
   \\    /   O peration     | Website:  https://openfoam.org
    \\  /    A nd           | Version:  dev
     \\/     M anipulation  |
\*---------------------------------------------------------------------------*/
FoamFile
{
    format      ascii;
    class       volScalarField;
    location    "0.196287";
    object      thermo:rho;
}
// * * * * * * * * * * * * * * * * * * * * * * * * * * * * * * * * * * * * * //

dimensions      [1 -3 0 0 0 0 0];

internalField   nonuniform List<scalar> 
100
(
0.0911194
0.103314
0.107332
0.108968
0.109738
0.110135
0.11035
0.110467
0.110526
0.11055
0.11055
0.110535
0.110509
0.110476
0.110438
0.110399
0.110358
0.110318
0.110279
0.110242
0.110208
0.110177
0.110148
0.110122
0.110098
0.110075
0.110052
0.110028
0.11
0.109966
0.109924
0.109871
0.109804
0.10972
0.109615
0.109485
0.109328
0.109138
0.108913
0.10865
0.108344
0.107993
0.107593
0.107142
0.106638
0.106078
0.105461
0.104784
0.104046
0.103247
0.102386
0.101462
0.100474
0.0994246
0.0983129
0.0971403
0.0959083
0.0946193
0.0932773
0.0918872
0.0904536
0.0889793
0.0874635
0.0859025
0.0842904
0.0826222
0.0808964
0.0791175
0.0772972
0.0754537
0.0736091
0.0717864
0.070006
0.0682834
0.0666324
0.0650628
0.0635543
0.0622747
0.0604847
0.0626031
0.0402911
609.999
885.214
920.849
940.982
952.162
958.438
961.908
963.895
965.281
966.164
966.89
968.228
969.349
969.064
969.1
969.126
969.101
949.997
931.452
)
;

boundaryField
{
    frontHeated
    {
        type            calculated;
        value           uniform 0.0562093;
    }
    backOutlet
    {
        type            calculated;
        value           uniform 931.447;
    }
    defaultFaces
    {
        type            empty;
    }
}


// ************************************************************************* //
