/*--------------------------------*- C++ -*----------------------------------*\
  =========                 |
  \\      /  F ield         | OpenFOAM: The Open Source CFD Toolbox
   \\    /   O peration     | Website:  https://openfoam.org
    \\  /    A nd           | Version:  dev
     \\/     M anipulation  |
\*---------------------------------------------------------------------------*/
FoamFile
{
    format      ascii;
    class       volScalarField;
    location    "0.130533";
    object      p;
}
// * * * * * * * * * * * * * * * * * * * * * * * * * * * * * * * * * * * * * //

dimensions      [1 -1 -2 0 0 0 0];

internalField   nonuniform List<scalar> 
100
(
12254.6
12254.6
12254.6
12254.6
12254.6
12254.6
12254.6
12254.6
12254.6
12254.6
12254.6
12254.6
12254.6
12254.6
12254.6
12254.6
12254.6
12254.7
12254.7
12254.7
12254.7
12254.7
12254.7
12254.7
12254.7
12254.7
12254.7
12254.7
12254.7
12254.7
12254.7
12254.7
12254.7
12254.7
12254.7
12254.7
12254.7
12254.7
12254.7
12254.7
12254.7
12254.7
12254.6
12254.6
12254.6
12254.6
12254.6
12254.5
12254.5
12254.1
12254.7
12056.3
11938.2
11827.5
11752.7
11688.2
11618.8
11550.2
11482.7
11414.8
11346.6
11278.5
11210.2
11141.8
11073.4
11004.8
10936.1
10867.4
10798.4
10729.4
10660.2
10590.9
10521.4
10451.8
10382
10312.1
10242.1
10171.9
10101.6
10031
10000
10000
10000
10000
10000
10000
10000
10000
10000
10000
10000
10000
10000
10000
10000
10000
10000
10000
10000
10000
)
;

boundaryField
{
    frontHeated
    {
        type            calculated;
        value           uniform 12254.6;
    }
    backOutlet
    {
        type            calculated;
        value           uniform 10000;
    }
    defaultFaces
    {
        type            empty;
    }
}


// ************************************************************************* //
