/*--------------------------------*- C++ -*----------------------------------*\
  =========                 |
  \\      /  F ield         | OpenFOAM: The Open Source CFD Toolbox
   \\    /   O peration     | Website:  https://openfoam.org
    \\  /    A nd           | Version:  dev
     \\/     M anipulation  |
\*---------------------------------------------------------------------------*/
FoamFile
{
    format      ascii;
    class       volScalarField;
    location    "0.130533";
    object      p_rgh;
}
// * * * * * * * * * * * * * * * * * * * * * * * * * * * * * * * * * * * * * //

dimensions      [1 -1 -2 0 0 0 0];

internalField   nonuniform List<scalar> 
100
(
12255.2
12255.2
12255.2
12255.2
12255.2
12255.2
12255.2
12255.2
12255.2
12255.2
12255.2
12255.2
12255.2
12255.2
12255.2
12255.2
12255.2
12255.2
12255.2
12255.2
12255.2
12255.2
12255.3
12255.3
12255.3
12255.3
12255.3
12255.3
12255.3
12255.3
12255.3
12255.3
12255.3
12255.3
12255.3
12255.2
12255.2
12255.2
12255.2
12255.2
12255.2
12255.1
12255.1
12255.1
12255
12255
12255
12254.9
12254.9
12254.4
12254.9
14956
16294.1
16358.6
16382.1
16372.9
16334.5
16283.4
16225.7
16163.4
16098.3
16031.9
15964.6
15896.8
15828.6
15760.2
15691.7
15622.9
15554.1
15485
15415.9
15346.5
15277.1
15207.4
15137.7
15067.8
14997.7
14927.6
14857.2
14786.6
14755.7
14755.7
14755.7
14755.7
14755.7
14755.7
14755.7
14755.7
14755.7
14755.7
14755.7
14755.7
14755.7
14755.7
14755.7
14755.7
14755.7
14755.7
14755.7
14755.7
)
;

boundaryField
{
    frontHeated
    {
        type            fixedFluxPressure;
        gradient        uniform -40.4832;
        value           uniform 12255;
    }
    backOutlet
    {
        type            prghTotalPressure;
        rho             thermo:rho;
        psi             none;
        gamma           1;
        p0              uniform 0;
        value           uniform 4755.66;
        rho             thermo:rho;
    }
    defaultFaces
    {
        type            empty;
    }
}


// ************************************************************************* //
