/*--------------------------------*- C++ -*----------------------------------*\
  =========                 |
  \\      /  F ield         | OpenFOAM: The Open Source CFD Toolbox
   \\    /   O peration     | Website:  https://openfoam.org
    \\  /    A nd           | Version:  dev
     \\/     M anipulation  |
\*---------------------------------------------------------------------------*/
FoamFile
{
    format      ascii;
    class       volScalarField;
    location    "0.130533";
    object      T;
}
// * * * * * * * * * * * * * * * * * * * * * * * * * * * * * * * * * * * * * //

dimensions      [0 0 0 1 0 0 0];

internalField   nonuniform List<scalar> 
100
(
240.844
229.066
226.271
225.282
224.877
224.718
224.684
224.718
224.793
224.891
224.999
225.11
225.217
225.314
225.397
225.466
225.52
225.563
225.601
225.645
225.709
225.812
225.975
226.225
226.588
227.095
227.774
228.656
229.77
231.144
232.808
234.789
237.116
239.819
242.929
246.478
250.501
255.036
260.125
265.813
272.148
279.182
286.965
295.545
304.96
315.216
326.351
337.846
352.292
351.277
385.123
385.126
385.128
385.13
385.132
385.134
385.136
385.138
385.14
385.141
385.143
385.144
385.146
385.147
385.148
385.149
385.15
385.15
385.151
385.151
385.152
385.152
385.152
385.152
385.152
385.153
385.153
385.153
385.153
385.153
385.153
385.153
385.153
385.153
385.153
385.153
385.153
385.153
385.153
385.153
385.153
385.153
385.153
385.153
385.153
385.153
385.153
385.153
385.153
385.15
)
;

boundaryField
{
    frontHeated
    {
        type            fixedValue;
        value           uniform 385.15;
    }
    backOutlet
    {
        type            fixedValue;
        value           uniform 385.15;
    }
    defaultFaces
    {
        type            empty;
    }
}


// ************************************************************************* //
