/*--------------------------------*- C++ -*----------------------------------*\
  =========                 |
  \\      /  F ield         | OpenFOAM: The Open Source CFD Toolbox
   \\    /   O peration     | Website:  https://openfoam.org
    \\  /    A nd           | Version:  dev
     \\/     M anipulation  |
\*---------------------------------------------------------------------------*/
FoamFile
{
    format      ascii;
    class       volScalarField;
    location    "0.15374";
    object      p;
}
// * * * * * * * * * * * * * * * * * * * * * * * * * * * * * * * * * * * * * //

dimensions      [1 -1 -2 0 0 0 0];

internalField   nonuniform List<scalar> 
100
(
99989.8
99989.8
99989.8
99989.8
99989.8
99989.8
99989.8
99989.8
99989.8
99989.8
99989.8
99989.9
99990
99990
99990.1
99990.2
99990.3
99990.5
99990.6
99990.7
99990.8
99990.9
99991
99991.1
99991.3
99991.4
99991.5
99991.6
99991.7
99991.9
99992
99992.1
99992.2
99992.3
99992.4
99992.6
99992.7
99992.8
99992.9
99993
99993.2
99993.3
99993.4
99993.5
99993.6
99993.7
99993.9
99994
99994.1
99994.2
99994.3
99994.4
99994.6
99994.7
99994.8
99994.9
99995
99995.2
99995.3
99995.4
99995.5
99995.6
99995.7
99995.9
99996
99996.1
99996.2
99996.3
99996.5
99996.6
99996.7
99996.8
99996.9
99997
99997.2
99997.3
99997.4
99997.5
99997.6
99997.7
99997.9
99998
99998.1
99998.2
99998.3
99998.5
99998.6
99998.7
99998.8
99998.9
99999
99999.2
99999.3
99999.4
99999.5
99999.6
99999.7
99999.8
99999.9
100000
)
;

boundaryField
{
    frontHeated
    {
        type            calculated;
        value           uniform 99989.8;
    }
    backOutlet
    {
        type            calculated;
        value           uniform 100000;
    }
    defaultFaces
    {
        type            empty;
    }
}


// ************************************************************************* //
