/*--------------------------------*- C++ -*----------------------------------*\
  =========                 |
  \\      /  F ield         | OpenFOAM: The Open Source CFD Toolbox
   \\    /   O peration     | Website:  https://openfoam.org
    \\  /    A nd           | Version:  dev
     \\/     M anipulation  |
\*---------------------------------------------------------------------------*/
FoamFile
{
    format      ascii;
    class       volVectorField;
    location    "0.15374";
    object      U;
}
// * * * * * * * * * * * * * * * * * * * * * * * * * * * * * * * * * * * * * //

dimensions      [0 1 -1 0 0 0 0];

internalField   nonuniform List<vector> 
100
(
(6.03941e-05 0 0)
(3.30519e-05 0 0)
(3.31478e-05 0 0)
(2.66676e-05 0 0)
(1.66637e-05 0 0)
(8.11278e-06 0 0)
(6.39099e-06 0 0)
(1.03611e-05 0 0)
(-0.00011016 0 0)
(-1.41107e-05 0 0)
(0.000151366 0 0)
(3.48841e-05 0 0)
(5.33466e-06 0 0)
(5.35694e-06 0 0)
(4.67777e-06 0 0)
(4.19505e-06 0 0)
(3.9622e-06 0 0)
(3.82605e-06 0 0)
(3.75672e-06 0 0)
(3.70542e-06 0 0)
(3.66916e-06 0 0)
(3.64414e-06 0 0)
(3.62749e-06 0 0)
(3.61692e-06 0 0)
(3.61043e-06 0 0)
(3.60661e-06 0 0)
(3.60444e-06 0 0)
(3.60325e-06 0 0)
(3.60261e-06 0 0)
(3.60228e-06 0 0)
(3.60211e-06 0 0)
(3.60202e-06 0 0)
(3.60198e-06 0 0)
(3.60196e-06 0 0)
(3.60195e-06 0 0)
(3.60195e-06 0 0)
(3.60194e-06 0 0)
(3.60194e-06 0 0)
(3.60194e-06 0 0)
(3.60194e-06 0 0)
(3.60194e-06 0 0)
(3.60194e-06 0 0)
(3.60194e-06 0 0)
(3.60194e-06 0 0)
(3.60194e-06 0 0)
(3.60194e-06 0 0)
(3.60194e-06 0 0)
(3.60194e-06 0 0)
(3.60194e-06 0 0)
(3.60194e-06 0 0)
(3.60194e-06 0 0)
(3.60194e-06 0 0)
(3.60194e-06 0 0)
(3.60194e-06 0 0)
(3.60194e-06 0 0)
(3.60194e-06 0 0)
(3.60194e-06 0 0)
(3.60194e-06 0 0)
(3.60194e-06 0 0)
(3.60194e-06 0 0)
(3.60194e-06 0 0)
(3.60194e-06 0 0)
(3.60194e-06 0 0)
(3.60194e-06 0 0)
(3.60194e-06 0 0)
(3.60194e-06 0 0)
(3.60194e-06 0 0)
(3.60194e-06 0 0)
(3.60194e-06 0 0)
(3.60194e-06 0 0)
(3.60194e-06 0 0)
(3.60194e-06 0 0)
(3.60194e-06 0 0)
(3.60194e-06 0 0)
(3.60194e-06 0 0)
(3.60195e-06 0 0)
(3.60195e-06 0 0)
(3.60196e-06 0 0)
(3.60199e-06 0 0)
(3.60204e-06 0 0)
(3.60213e-06 0 0)
(3.60232e-06 0 0)
(3.60269e-06 0 0)
(3.60338e-06 0 0)
(3.60466e-06 0 0)
(3.60696e-06 0 0)
(3.61093e-06 0 0)
(3.61754e-06 0 0)
(3.62807e-06 0 0)
(3.64391e-06 0 0)
(3.66693e-06 0 0)
(3.69906e-06 0 0)
(3.74122e-06 0 0)
(3.80834e-06 0 0)
(3.85783e-06 0 0)
(3.95053e-06 0 0)
(4.08838e-06 0 0)
(4.48329e-06 0 0)
(8.28897e-06 0 0)
(-3.00932e-06 0 0)
)
;

boundaryField
{
    frontHeated
    {
        type            noSlip;
    }
    backOutlet
    {
        type            pressureInletOutletVelocity;
        value           uniform (-3.00932e-06 0 0);
    }
    defaultFaces
    {
        type            empty;
    }
}


// ************************************************************************* //
