/*--------------------------------*- C++ -*----------------------------------*\
  =========                 |
  \\      /  F ield         | OpenFOAM: The Open Source CFD Toolbox
   \\    /   O peration     | Website:  https://openfoam.org
    \\  /    A nd           | Version:  dev
     \\/     M anipulation  |
\*---------------------------------------------------------------------------*/
FoamFile
{
    format      ascii;
    class       volScalarField;
    location    "0.244115";
    object      T;
}
// * * * * * * * * * * * * * * * * * * * * * * * * * * * * * * * * * * * * * //

dimensions      [0 0 0 1 0 0 0];

internalField   nonuniform List<scalar> 
100
(
241.899
204.401
192.575
187.643
185.248
183.963
183.227
182.786
182.517
182.353
182.257
182.206
182.188
182.191
182.211
182.242
182.282
182.327
182.375
182.425
182.476
182.527
182.576
182.623
182.668
182.709
182.748
182.784
182.818
182.849
182.879
182.909
182.939
182.972
183.008
183.049
183.098
183.157
183.228
183.313
183.416
183.54
183.687
183.861
184.064
184.301
184.573
184.886
185.241
185.643
186.094
186.599
187.159
187.778
188.46
189.207
190.023
190.911
191.874
192.915
194.037
195.244
196.538
197.922
199.4
200.974
202.647
204.422
206.3
208.285
210.378
212.584
214.905
217.346
219.913
222.61
225.444
228.421
231.547
234.824
238.257
241.844
245.584
249.471
253.497
257.651
261.916
266.268
270.692
275.194
279.791
284.511
289.405
294.52
299.944
305.699
307.623
382.743
384.653
349.942
)
;

boundaryField
{
    frontHeated
    {
        type            fixedValue;
        value           uniform 385.15;
    }
    backOutlet
    {
        type            fixedValue;
        value           uniform 385.15;
    }
    defaultFaces
    {
        type            empty;
    }
}


// ************************************************************************* //
