/*--------------------------------*- C++ -*----------------------------------*\
  =========                 |
  \\      /  F ield         | OpenFOAM: The Open Source CFD Toolbox
   \\    /   O peration     | Website:  https://openfoam.org
    \\  /    A nd           | Version:  dev
     \\/     M anipulation  |
\*---------------------------------------------------------------------------*/
FoamFile
{
    format      ascii;
    class       volVectorField;
    location    "0.235675";
    object      U;
}
// * * * * * * * * * * * * * * * * * * * * * * * * * * * * * * * * * * * * * //

dimensions      [0 1 -1 0 0 0 0];

internalField   nonuniform List<vector> 
100
(
(0.0297502 0 0)
(0.0793538 0 0)
(0.122069 0 0)
(0.161928 0 0)
(0.201104 0 0)
(0.240333 0 0)
(0.27973 0 0)
(0.319234 0 0)
(0.358784 0 0)
(0.398347 0 0)
(0.437912 0 0)
(0.477481 0 0)
(0.517054 0 0)
(0.556633 0 0)
(0.596221 0 0)
(0.635823 0 0)
(0.675443 0 0)
(0.715088 0 0)
(0.754766 0 0)
(0.794484 0 0)
(0.834248 0 0)
(0.874064 0 0)
(0.913938 0 0)
(0.953872 0 0)
(0.993866 0 0)
(1.03392 0 0)
(1.07402 0 0)
(1.11417 0 0)
(1.15434 0 0)
(1.19453 0 0)
(1.23469 0 0)
(1.2748 0 0)
(1.31482 0 0)
(1.3547 0 0)
(1.39439 0 0)
(1.43381 0 0)
(1.4729 0 0)
(1.51158 0 0)
(1.54975 0 0)
(1.58733 0 0)
(1.62423 0 0)
(1.66035 0 0)
(1.69558 0 0)
(1.72981 0 0)
(1.76292 0 0)
(1.7948 0 0)
(1.82533 0 0)
(1.85444 0 0)
(1.88204 0 0)
(1.90807 0 0)
(1.93248 0 0)
(1.9552 0 0)
(1.97618 0 0)
(1.99537 0 0)
(2.01272 0 0)
(2.02818 0 0)
(2.04172 0 0)
(2.05331 0 0)
(2.06293 0 0)
(2.07058 0 0)
(2.07625 0 0)
(2.07996 0 0)
(2.08174 0 0)
(2.08162 0 0)
(2.07965 0 0)
(2.07592 0 0)
(2.07054 0 0)
(2.06368 0 0)
(2.05553 0 0)
(2.04628 0 0)
(2.03607 0 0)
(2.02497 0 0)
(2.01291 0 0)
(1.99962 0 0)
(1.98459 0 0)
(1.96704 0 0)
(1.94599 0 0)
(1.92043 0 0)
(1.88958 0 0)
(1.85308 0 0)
(1.81159 0 0)
(1.76697 0 0)
(1.72101 0 0)
(1.67577 0 0)
(1.63684 0 0)
(1.61334 0 0)
(1.61156 0 0)
(1.62368 0 0)
(1.63075 0 0)
(1.64213 0 0)
(1.67564 0 0)
(1.73805 0 0)
(1.80771 0 0)
(1.8323 0 0)
(1.93441 0 0)
(2.64051 0 0)
(4.07567 0 0)
(4.76956 0 0)
(3.70815 0 0)
(8.37029 0 0)
)
;

boundaryField
{
    frontHeated
    {
        type            noSlip;
    }
    backOutlet
    {
        type            pressureInletOutletVelocity;
        value           uniform (8.37029 0 0);
    }
    defaultFaces
    {
        type            empty;
    }
}


// ************************************************************************* //
