/*--------------------------------*- C++ -*----------------------------------*\
  =========                 |
  \\      /  F ield         | OpenFOAM: The Open Source CFD Toolbox
   \\    /   O peration     | Website:  https://openfoam.org
    \\  /    A nd           | Version:  dev
     \\/     M anipulation  |
\*---------------------------------------------------------------------------*/
FoamFile
{
    format      ascii;
    class       volScalarField;
    location    "0.20241";
    object      rhoSmear;
}
// * * * * * * * * * * * * * * * * * * * * * * * * * * * * * * * * * * * * * //

dimensions      [1 -3 -1 0 0 0 0];

internalField   nonuniform List<scalar> 
100
(
3.11658e-16
3.46287e-16
4.19391e-16
5.39095e-16
7.18699e-16
9.78158e-16
1.3463e-15
1.86403e-15
2.58888e-15
3.60138e-15
5.01403e-15
6.9838e-15
9.72955e-15
1.35564e-14
1.88894e-14
2.63213e-14
3.66778e-14
5.11096e-14
7.12202e-14
9.92443e-14
1.38295e-13
1.92713e-13
2.68543e-13
3.7421e-13
5.21457e-13
7.26644e-13
1.01257e-12
1.411e-12
1.96621e-12
2.73989e-12
3.818e-12
5.32033e-12
7.41381e-12
1.0331e-11
1.43962e-11
2.00609e-11
2.79546e-11
3.89543e-11
5.42824e-11
7.56417e-11
1.05406e-10
1.46882e-10
2.04678e-10
2.85215e-10
3.97444e-10
5.53833e-10
7.71759e-10
1.07544e-09
1.49861e-09
2.08829e-09
2.91e-09
4.05505e-09
5.65065e-09
7.87411e-09
1.09725e-08
1.529e-08
2.13064e-08
2.96902e-08
4.13729e-08
5.76526e-08
8.03381e-08
1.1195e-07
1.56001e-07
2.17385e-07
3.02924e-07
4.2212e-07
5.88219e-07
8.19675e-07
1.14221e-06
1.59165e-06
2.21794e-06
3.09067e-06
4.30681e-06
6.00149e-06
8.36299e-06
1.16537e-05
1.62393e-05
2.26293e-05
3.15336e-05
4.39416e-05
6.12321e-05
8.53261e-05
0.000118901
0.000165687
0
0
0
0
0
0
0
0
0
0
0
0
0
-0.00058676
0
0
)
;

boundaryField
{
    frontHeated
    {
        type            zeroGradient;
    }
    backOutlet
    {
        type            zeroGradient;
    }
    defaultFaces
    {
        type            empty;
    }
}


// ************************************************************************* //
