/*--------------------------------*- C++ -*----------------------------------*\
  =========                 |
  \\      /  F ield         | OpenFOAM: The Open Source CFD Toolbox
   \\    /   O peration     | Website:  https://openfoam.org
    \\  /    A nd           | Version:  dev
     \\/     M anipulation  |
\*---------------------------------------------------------------------------*/
FoamFile
{
    format      ascii;
    class       volScalarField;
    location    "0.20241";
    object      thermo:rho;
}
// * * * * * * * * * * * * * * * * * * * * * * * * * * * * * * * * * * * * * //

dimensions      [1 -3 0 0 0 0 0];

internalField   nonuniform List<scalar> 
100
(
0.0909324
0.103749
0.108074
0.109859
0.110706
0.111146
0.111387
0.111521
0.111592
0.111624
0.111631
0.11162
0.111598
0.111568
0.111532
0.111494
0.111454
0.111414
0.111375
0.111338
0.111303
0.11127
0.11124
0.111213
0.111187
0.111164
0.111141
0.111117
0.111091
0.111062
0.111026
0.110983
0.110928
0.11086
0.110774
0.110669
0.11054
0.110384
0.110198
0.109979
0.109722
0.109426
0.109088
0.108703
0.108271
0.107788
0.107253
0.106663
0.106017
0.105314
0.104553
0.103733
0.102853
0.101913
0.100914
0.0998554
0.0987385
0.0975646
0.0963357
0.0950549
0.0937261
0.0923529
0.0909381
0.0894819
0.0879826
0.0864369
0.0848411
0.0831936
0.0814964
0.0797564
0.0779857
0.0762002
0.0744181
0.0726574
0.0709344
0.0692623
0.0676529
0.0661142
0.0646597
0.0632856
0.0621989
0.0606061
0.0633954
0.038886
680.924
886.483
919.492
937.232
947.326
954.344
962.391
965.521
965.683
965.667
965.672
965.381
965.185
984.981
928.175
918.126
)
;

boundaryField
{
    frontHeated
    {
        type            calculated;
        value           uniform 0.0562093;
    }
    backOutlet
    {
        type            calculated;
        value           uniform 918.117;
    }
    defaultFaces
    {
        type            empty;
    }
}


// ************************************************************************* //
