/*--------------------------------*- C++ -*----------------------------------*\
  =========                 |
  \\      /  F ield         | OpenFOAM: The Open Source CFD Toolbox
   \\    /   O peration     | Website:  https://openfoam.org
    \\  /    A nd           | Version:  dev
     \\/     M anipulation  |
\*---------------------------------------------------------------------------*/
FoamFile
{
    format      ascii;
    class       volScalarField;
    location    "0.680853";
    object      p_rgh;
}
// * * * * * * * * * * * * * * * * * * * * * * * * * * * * * * * * * * * * * //

dimensions      [1 -1 -2 0 0 0 0];

internalField   nonuniform List<scalar> 
100
(
100008
100008
100008
100008
100008
100008
100008
100008
100008
100008
102315
104756
104761
104761
104761
104761
104761
104761
104761
104761
104761
104761
104761
104761
104761
104761
104761
104761
104760
104760
104760
104760
104760
104760
104760
104760
104760
104760
104760
104760
104760
104759
104759
104759
104759
104759
104759
104759
104759
104759
104759
104759
104759
104759
104759
104758
104758
104758
104758
104758
104758
104758
104758
104758
104758
104758
104758
104758
104757
104757
104757
104757
104757
104757
104757
104757
104757
104757
104757
104757
104757
104757
104756
104756
104756
104756
104756
104756
104756
104756
104756
104756
104756
104756
104756
104756
104756
104756
104756
104754
)
;

boundaryField
{
    frontHeated
    {
        type            fixedFluxPressure;
        gradient        uniform -8.92411;
        value           uniform 100008;
    }
    backOutlet
    {
        type            prghTotalPressure;
        rho             thermo:rho;
        psi             none;
        gamma           1;
        p0              uniform 100000;
        value           uniform 104754;
        rho             thermo:rho;
    }
    defaultFaces
    {
        type            empty;
    }
}


// ************************************************************************* //
