/*--------------------------------*- C++ -*----------------------------------*\
  =========                 |
  \\      /  F ield         | OpenFOAM: The Open Source CFD Toolbox
   \\    /   O peration     | Website:  https://openfoam.org
    \\  /    A nd           | Version:  dev
     \\/     M anipulation  |
\*---------------------------------------------------------------------------*/
FoamFile
{
    format      ascii;
    class       volVectorField;
    location    "0.680853";
    object      U;
}
// * * * * * * * * * * * * * * * * * * * * * * * * * * * * * * * * * * * * * //

dimensions      [0 1 -1 0 0 0 0];

internalField   nonuniform List<vector> 
100
(
(1.39937e-05 0 0)
(-3.71017e-05 0 0)
(-7.02073e-05 0 0)
(-0.000103625 0 0)
(-0.000126603 0 0)
(-0.000127521 0 0)
(-0.000105042 0 0)
(-8.01721e-05 0 0)
(6.2273e-05 0 0)
(0.000165271 0 0)
(0.000177971 0 0)
(0.00017579 0 0)
(0.000180966 0 0)
(0.000187565 0 0)
(0.000191431 0 0)
(0.000193467 0 0)
(0.000194389 0 0)
(0.000194846 0 0)
(0.000195104 0 0)
(0.000195268 0 0)
(0.000195392 0 0)
(0.00019549 0 0)
(0.000195571 0 0)
(0.000195636 0 0)
(0.000195691 0 0)
(0.000195735 0 0)
(0.000195772 0 0)
(0.000195802 0 0)
(0.000195826 0 0)
(0.000195845 0 0)
(0.000195861 0 0)
(0.000195874 0 0)
(0.000195884 0 0)
(0.000195892 0 0)
(0.000195899 0 0)
(0.000195904 0 0)
(0.000195908 0 0)
(0.000195911 0 0)
(0.000195913 0 0)
(0.000195915 0 0)
(0.000195917 0 0)
(0.000195918 0 0)
(0.000195919 0 0)
(0.000195919 0 0)
(0.00019592 0 0)
(0.00019592 0 0)
(0.000195921 0 0)
(0.000195921 0 0)
(0.000195921 0 0)
(0.000195921 0 0)
(0.000195921 0 0)
(0.000195921 0 0)
(0.000195921 0 0)
(0.000195921 0 0)
(0.000195921 0 0)
(0.000195921 0 0)
(0.000195921 0 0)
(0.000195921 0 0)
(0.000195921 0 0)
(0.000195921 0 0)
(0.000195921 0 0)
(0.000195921 0 0)
(0.000195921 0 0)
(0.000195921 0 0)
(0.000195921 0 0)
(0.00019592 0 0)
(0.00019592 0 0)
(0.000195919 0 0)
(0.000195919 0 0)
(0.000195918 0 0)
(0.000195916 0 0)
(0.000195915 0 0)
(0.000195913 0 0)
(0.00019591 0 0)
(0.000195906 0 0)
(0.000195902 0 0)
(0.000195896 0 0)
(0.000195889 0 0)
(0.00019588 0 0)
(0.000195868 0 0)
(0.000195854 0 0)
(0.000195835 0 0)
(0.000195812 0 0)
(0.000195784 0 0)
(0.000195749 0 0)
(0.000195705 0 0)
(0.000195651 0 0)
(0.000195585 0 0)
(0.000195503 0 0)
(0.000195402 0 0)
(0.000195273 0 0)
(0.000195106 0 0)
(0.00019488 0 0)
(0.000194579 0 0)
(0.000194031 0 0)
(0.00019342 0 0)
(0.000191966 0 0)
(0.000189502 0 0)
(0.000186985 0 0)
(0.000185849 0 0)
)
;

boundaryField
{
    frontHeated
    {
        type            noSlip;
    }
    backOutlet
    {
        type            pressureInletOutletVelocity;
        value           uniform (0.000185849 0 0);
    }
    defaultFaces
    {
        type            empty;
    }
}


// ************************************************************************* //
