/*--------------------------------*- C++ -*----------------------------------*\
  =========                 |
  \\      /  F ield         | OpenFOAM: The Open Source CFD Toolbox
   \\    /   O peration     | Website:  https://openfoam.org
    \\  /    A nd           | Version:  dev
     \\/     M anipulation  |
\*---------------------------------------------------------------------------*/
FoamFile
{
    format      ascii;
    class       volScalarField;
    location    "0.134869";
    object      p_rgh;
}
// * * * * * * * * * * * * * * * * * * * * * * * * * * * * * * * * * * * * * //

dimensions      [1 -1 -2 0 0 0 0];

internalField   nonuniform List<scalar> 
100
(
11728.1
11728.1
11728.1
11728.2
11728.2
11728.2
11728.2
11728.2
11728.2
11728.2
11728.2
11728.2
11728.2
11728.2
11728.2
11728.2
11728.2
11728.2
11728.2
11728.3
11728.3
11728.3
11728.3
11728.3
11728.3
11728.3
11728.3
11728.4
11728.4
11728.4
11728.4
11728.4
11728.4
11728.4
11728.4
11728.4
11728.4
11728.4
11728.4
11728.4
11728.4
11728.4
11728.4
11728.4
11728.4
11728.4
11728.3
11728.3
11728.3
11728.3
11728.3
11727.8
11728.4
14678.2
15809.5
15887.5
15906.7
15902.1
15871.8
15828.4
15778.7
15725
15668.7
15611.1
15552.7
15493.9
15434.7
15375.3
15315.8
15256.1
15196.3
15136.4
15076.4
15016.3
14956
14895.6
14835
14774.5
14755.7
14755.7
14755.7
14755.7
14755.7
14755.7
14755.7
14755.7
14755.7
14755.7
14755.7
14755.7
14755.7
14755.7
14755.7
14755.7
14755.7
14755.7
14755.7
14755.7
14755.7
14755.7
)
;

boundaryField
{
    frontHeated
    {
        type            fixedFluxPressure;
        gradient        uniform -39.1962;
        value           uniform 11727.9;
    }
    backOutlet
    {
        type            prghTotalPressure;
        rho             thermo:rho;
        psi             none;
        gamma           1;
        p0              uniform 0;
        value           uniform 4755.66;
        rho             thermo:rho;
    }
    defaultFaces
    {
        type            empty;
    }
}


// ************************************************************************* //
