/*--------------------------------*- C++ -*----------------------------------*\
  =========                 |
  \\      /  F ield         | OpenFOAM: The Open Source CFD Toolbox
   \\    /   O peration     | Website:  https://openfoam.org
    \\  /    A nd           | Version:  dev
     \\/     M anipulation  |
\*---------------------------------------------------------------------------*/
FoamFile
{
    format      ascii;
    class       volScalarField;
    location    "0.134869";
    object      rhoSmear;
}
// * * * * * * * * * * * * * * * * * * * * * * * * * * * * * * * * * * * * * //

dimensions      [1 -3 -1 0 0 0 0];

internalField   nonuniform List<scalar> 
100
(
8.74615e-12
9.71794e-12
1.17695e-11
1.51288e-11
2.01691e-11
2.74503e-11
3.77817e-11
5.23109e-11
7.26525e-11
1.01067e-10
1.4071e-10
1.95989e-10
2.73043e-10
3.80436e-10
5.301e-10
7.38663e-10
1.0293e-09
1.4343e-09
1.99868e-09
2.78512e-09
3.88103e-09
5.40815e-09
7.53619e-09
1.05016e-08
1.46338e-08
2.0392e-08
2.8416e-08
3.95973e-08
5.51784e-08
7.68903e-08
1.07146e-07
1.49306e-07
2.08056e-07
2.89923e-07
4.04004e-07
5.62975e-07
7.84498e-07
1.09319e-06
1.52334e-06
2.12276e-06
2.95803e-06
4.12198e-06
5.74393e-06
8.00409e-06
1.11536e-05
1.55424e-05
2.16581e-05
3.01803e-05
4.20558e-05
5.86042e-05
8.16642e-05
0.000113798
0.000158576
0
0
0
0
0
0
0
0
0
-0.000158576
-0.000113798
-8.16642e-05
-5.86042e-05
-4.20558e-05
-3.01803e-05
-2.16581e-05
-1.55424e-05
-1.11536e-05
-8.00409e-06
-5.74393e-06
-4.12198e-06
-2.95803e-06
-2.12276e-06
-1.52334e-06
-1.09319e-06
-7.84498e-07
-5.62975e-07
-4.04005e-07
-2.89925e-07
-2.08058e-07
-1.49309e-07
-1.07149e-07
-7.68954e-08
-5.51855e-08
-3.96072e-08
-2.84298e-08
-2.04112e-08
-1.46606e-08
-1.05389e-08
-7.58814e-09
-5.48055e-09
-3.9819e-09
-2.92569e-09
-2.19456e-09
-1.70727e-09
-1.40967e-09
-1.2687e-09
)
;

boundaryField
{
    frontHeated
    {
        type            zeroGradient;
    }
    backOutlet
    {
        type            zeroGradient;
    }
    defaultFaces
    {
        type            empty;
    }
}


// ************************************************************************* //
