/*--------------------------------*- C++ -*----------------------------------*\
  =========                 |
  \\      /  F ield         | OpenFOAM: The Open Source CFD Toolbox
   \\    /   O peration     | Website:  https://openfoam.org
    \\  /    A nd           | Version:  dev
     \\/     M anipulation  |
\*---------------------------------------------------------------------------*/
FoamFile
{
    format      ascii;
    class       volVectorField;
    location    "0.183945";
    object      U;
}
// * * * * * * * * * * * * * * * * * * * * * * * * * * * * * * * * * * * * * //

dimensions      [0 1 -1 0 0 0 0];

internalField   nonuniform List<vector> 
100
(
(0.0403042 0 0)
(0.102853 0 0)
(0.158566 0 0)
(0.213032 0 0)
(0.267671 0 0)
(0.32244 0 0)
(0.377173 0 0)
(0.431844 0 0)
(0.486486 0 0)
(0.541128 0 0)
(0.595776 0 0)
(0.650434 0 0)
(0.705103 0 0)
(0.759791 0 0)
(0.814506 0 0)
(0.869256 0 0)
(0.924049 0 0)
(0.978892 0 0)
(1.03379 0 0)
(1.08874 0 0)
(1.14375 0 0)
(1.19881 0 0)
(1.25391 0 0)
(1.30904 0 0)
(1.36418 0 0)
(1.41928 0 0)
(1.47433 0 0)
(1.52926 0 0)
(1.58401 0 0)
(1.63851 0 0)
(1.69269 0 0)
(1.74644 0 0)
(1.79964 0 0)
(1.85228 0 0)
(1.90428 0 0)
(1.95547 0 0)
(2.00563 0 0)
(2.05458 0 0)
(2.10229 0 0)
(2.14877 0 0)
(2.194 0 0)
(2.23791 0 0)
(2.28042 0 0)
(2.32141 0 0)
(2.3608 0 0)
(2.39852 0 0)
(2.43452 0 0)
(2.46876 0 0)
(2.5012 0 0)
(2.53181 0 0)
(2.56058 0 0)
(2.58748 0 0)
(2.61248 0 0)
(2.63572 0 0)
(2.65733 0 0)
(2.67702 0 0)
(2.69496 0 0)
(2.71257 0 0)
(2.73112 0 0)
(2.75017 0 0)
(2.76863 0 0)
(2.78544 0 0)
(2.79749 0 0)
(2.79787 0 0)
(2.77787 0 0)
(2.7325 0 0)
(2.66537 0 0)
(2.58935 0 0)
(2.52326 0 0)
(2.48694 0 0)
(2.4987 0 0)
(2.572 0 0)
(2.74336 0 0)
(2.99864 0 0)
(4.54732 0 0)
(4.55815 0 0)
(4.5819 0 0)
(4.64069 0 0)
(4.66333 0 0)
(4.66049 0 0)
(4.65665 0 0)
(4.65199 0 0)
(4.649 0 0)
(4.64673 0 0)
(4.64501 0 0)
(4.64337 0 0)
(4.64156 0 0)
(4.63933 0 0)
(4.63652 0 0)
(4.63301 0 0)
(4.62879 0 0)
(4.62392 0 0)
(4.6185 0 0)
(4.61275 0 0)
(4.60632 0 0)
(4.602 0 0)
(4.58371 0 0)
(4.64544 0 0)
(4.26557 0 0)
(6.75113 0 0)
)
;

boundaryField
{
    frontHeated
    {
        type            noSlip;
    }
    backOutlet
    {
        type            pressureInletOutletVelocity;
        value           uniform (6.75113 0 0);
    }
    defaultFaces
    {
        type            empty;
    }
}


// ************************************************************************* //
