/*--------------------------------*- C++ -*----------------------------------*\
  =========                 |
  \\      /  F ield         | OpenFOAM: The Open Source CFD Toolbox
   \\    /   O peration     | Website:  https://openfoam.org
    \\  /    A nd           | Version:  dev
     \\/     M anipulation  |
\*---------------------------------------------------------------------------*/
FoamFile
{
    format      ascii;
    class       volScalarField;
    location    "0.227687";
    object      rhoSmear;
}
// * * * * * * * * * * * * * * * * * * * * * * * * * * * * * * * * * * * * * //

dimensions      [1 -3 -1 0 0 0 0];

internalField   nonuniform List<scalar> 
100
(
1.29842e-19
1.44268e-19
1.74725e-19
2.24596e-19
2.99421e-19
4.07516e-19
5.6089e-19
7.76585e-19
1.07857e-18
1.50039e-18
2.08893e-18
2.90956e-18
4.05348e-18
5.64779e-18
7.86963e-18
1.09659e-17
1.52805e-17
2.12931e-17
2.96715e-17
4.13467e-17
5.7616e-17
8.02871e-17
1.11879e-16
1.55902e-16
2.17247e-16
3.02731e-16
4.21852e-16
5.87845e-16
8.19154e-16
1.14148e-15
1.59064e-15
2.21653e-15
3.08871e-15
4.30408e-15
5.99767e-15
8.35768e-15
1.16463e-14
1.6229e-14
2.26149e-14
3.15135e-14
4.39137e-14
6.11932e-14
8.52719e-14
1.18825e-13
1.65581e-13
2.30735e-13
3.21527e-13
4.48043e-13
6.24342e-13
8.70013e-13
1.21235e-12
1.6894e-12
2.35415e-12
3.28048e-12
4.5713e-12
6.37005e-12
8.87658e-12
1.23694e-11
1.72366e-11
2.4019e-11
3.34701e-11
4.66402e-11
6.49925e-11
9.05661e-11
1.26203e-10
1.75862e-10
2.45061e-10
3.41489e-10
4.75861e-10
6.63106e-10
9.2403e-10
1.28762e-09
1.79429e-09
2.50031e-09
3.48415e-09
4.85512e-09
6.76555e-09
9.4277e-09
1.31374e-08
1.83068e-08
2.55102e-08
3.55482e-08
4.95359e-08
6.90276e-08
9.61891e-08
1.34038e-07
1.86781e-07
2.60276e-07
3.62691e-07
5.05406e-07
7.04276e-07
9.814e-07
1.36757e-06
1.90569e-06
0
0
0
0
0
0
)
;

boundaryField
{
    frontHeated
    {
        type            zeroGradient;
    }
    backOutlet
    {
        type            zeroGradient;
    }
    defaultFaces
    {
        type            empty;
    }
}


// ************************************************************************* //
