/*--------------------------------*- C++ -*----------------------------------*\
  =========                 |
  \\      /  F ield         | OpenFOAM: The Open Source CFD Toolbox
   \\    /   O peration     | Website:  https://openfoam.org
    \\  /    A nd           | Version:  dev
     \\/     M anipulation  |
\*---------------------------------------------------------------------------*/
FoamFile
{
    format      ascii;
    class       volScalarField;
    location    "0.227687";
    object      T;
}
// * * * * * * * * * * * * * * * * * * * * * * * * * * * * * * * * * * * * * //

dimensions      [0 0 0 1 0 0 0];

internalField   nonuniform List<scalar> 
100
(
240.498
205.882
195.427
191.192
189.177
188.115
187.517
187.168
186.963
186.847
186.788
186.767
186.774
186.799
186.838
186.885
186.939
186.997
187.056
187.116
187.174
187.231
187.286
187.337
187.384
187.429
187.47
187.509
187.547
187.584
187.622
187.664
187.71
187.764
187.828
187.906
188
188.114
188.253
188.419
188.618
188.853
189.129
189.449
189.82
190.244
190.726
191.272
191.884
192.568
193.329
194.169
195.095
196.11
197.219
198.427
199.737
201.156
202.687
204.335
206.105
208.002
210.03
212.193
214.496
216.942
219.536
222.282
225.188
228.262
231.515
234.96
238.609
242.475
246.568
250.895
255.459
260.256
265.277
270.509
275.924
281.525
287.258
292.996
298.683
304.477
310.703
317.666
325.678
332.617
340.738
351.278
362.022
384.828
385.118
385.121
385.123
385.125
385.127
384.824
)
;

boundaryField
{
    frontHeated
    {
        type            fixedValue;
        value           uniform 385.15;
    }
    backOutlet
    {
        type            fixedValue;
        value           uniform 385.15;
    }
    defaultFaces
    {
        type            empty;
    }
}


// ************************************************************************* //
