/*--------------------------------*- C++ -*----------------------------------*\
  =========                 |
  \\      /  F ield         | OpenFOAM: The Open Source CFD Toolbox
   \\    /   O peration     | Website:  https://openfoam.org
    \\  /    A nd           | Version:  dev
     \\/     M anipulation  |
\*---------------------------------------------------------------------------*/
FoamFile
{
    format      ascii;
    class       volScalarField;
    location    "0.224254";
    object      epsilon;
}
// * * * * * * * * * * * * * * * * * * * * * * * * * * * * * * * * * * * * * //

dimensions      [0 2 -3 0 0 0 0];

internalField   nonuniform List<scalar> 
100
(
0.0157867
0.0179969
0.021351
0.0241202
0.0265863
0.0288933
0.0310911
0.0331967
0.0352147
0.0371443
0.0389816
0.0407215
0.0423592
0.0438907
0.0453126
0.0466225
0.0478185
0.0488991
0.0498635
0.0507113
0.0514424
0.0520572
0.0525564
0.0529411
0.0532127
0.053373
0.0534241
0.0533683
0.0532083
0.052947
0.0525878
0.0521342
0.0515902
0.05096
0.0502486
0.0494609
0.0486027
0.0476796
0.0466973
0.0456611
0.0445766
0.0434496
0.0422865
0.041094
0.0398786
0.0386464
0.0374027
0.0361524
0.0348994
0.0336478
0.032401
0.0311624
0.0299355
0.0287232
0.0275285
0.0263541
0.0252023
0.0240753
0.0229748
0.0219022
0.0208584
0.0198442
0.0188598
0.0179054
0.0169811
0.0160872
0.0152245
0.0143941
0.0135983
0.0128402
0.0121243
0.0114563
0.0108437
0.0102949
0.00981958
0.00942824
0.00913317
0.00894982
0.008899
0.00900954
0.00932046
0.0098837
0.0107617
0.0120334
0.0134084
0.0154773
0.0193326
0.0256339
0.0364782
0.0348045
0.103848
0.617899
176.923
0.850692
0.595909
0.37088
0.276674
0.229926
0.244836
0.424958
)
;

boundaryField
{
    frontHeated
    {
        type            epsilonWallFunction;
        value           uniform 0.0157867;
    }
    backOutlet
    {
        type            inletOutlet;
        inletValue      uniform 0.1;
        value           uniform 0.424958;
    }
    defaultFaces
    {
        type            empty;
    }
}


// ************************************************************************* //
