/*--------------------------------*- C++ -*----------------------------------*\
  =========                 |
  \\      /  F ield         | OpenFOAM: The Open Source CFD Toolbox
   \\    /   O peration     | Website:  https://openfoam.org
    \\  /    A nd           | Version:  dev
     \\/     M anipulation  |
\*---------------------------------------------------------------------------*/
FoamFile
{
    format      ascii;
    class       volScalarField;
    location    "0.224254";
    object      nut;
}
// * * * * * * * * * * * * * * * * * * * * * * * * * * * * * * * * * * * * * //

dimensions      [0 2 -1 0 0 0 0];

internalField   nonuniform List<scalar> 
100
(
1.77525e-06
4.47058e-05
0.000120543
0.00021181
0.000310553
0.000412482
0.000515374
0.000618058
0.0007198
0.000819999
0.000918053
0.00101333
0.00110517
0.00119289
0.00127581
0.00135327
0.00142465
0.00148937
0.00154688
0.00159672
0.00163849
0.00167186
0.00169659
0.00171253
0.0017196
0.00171784
0.0017074
0.00168851
0.00166153
0.0016269
0.00158517
0.001537
0.00148311
0.00142429
0.00136138
0.00129528
0.00122685
0.00115698
0.0010865
0.00101619
0.000946753
0.000878823
0.000812939
0.000749548
0.000689005
0.000631569
0.000577412
0.000526627
0.000479238
0.00043521
0.000394463
0.000356881
0.000322322
0.000290625
0.000261618
0.000235123
0.000210964
0.000188967
0.000168963
0.000150794
0.000134309
0.000119368
0.00010584
9.36051e-05
8.25508e-05
7.25746e-05
6.35817e-05
5.54847e-05
4.8203e-05
4.16627e-05
3.5797e-05
3.05461e-05
2.58588e-05
2.1692e-05
1.80113e-05
1.47894e-05
1.20043e-05
9.63553e-06
7.66095e-06
6.05323e-06
4.7779e-06
3.79338e-06
3.05214e-06
2.49638e-06
2.07968e-06
1.70195e-06
1.37358e-06
1.1608e-06
9.16451e-07
7.20316e-07
5.32157e-07
1.68336e-07
7.4358e-13
6.53461e-07
1.43009e-06
2.65376e-06
5.72683e-06
1.16286e-05
2.6032e-05
4.10764e-05
)
;

boundaryField
{
    frontHeated
    {
        type            nutkWallFunction;
        Cmu             0.09;
        kappa           0.41;
        E               9.8;
        value           uniform 0;
    }
    backOutlet
    {
        type            calculated;
        value           uniform 4.10764e-05;
    }
    defaultFaces
    {
        type            empty;
    }
}


// ************************************************************************* //
