/*--------------------------------*- C++ -*----------------------------------*\
  =========                 |
  \\      /  F ield         | OpenFOAM: The Open Source CFD Toolbox
   \\    /   O peration     | Website:  https://openfoam.org
    \\  /    A nd           | Version:  dev
     \\/     M anipulation  |
\*---------------------------------------------------------------------------*/
FoamFile
{
    format      ascii;
    class       volScalarField;
    location    "0.224254";
    object      rhoSmear;
}
// * * * * * * * * * * * * * * * * * * * * * * * * * * * * * * * * * * * * * //

dimensions      [1 -3 -1 0 0 0 0];

internalField   nonuniform List<scalar> 
100
(
8.92834e-18
9.92038e-18
1.20147e-17
1.54439e-17
2.05892e-17
2.80222e-17
3.85687e-17
5.34006e-17
7.41659e-17
1.03172e-16
1.43641e-16
2.00071e-16
2.78731e-16
3.88361e-16
5.41142e-16
7.5405e-16
1.05074e-15
1.46418e-15
2.04031e-15
2.84314e-15
3.96187e-15
5.52081e-15
7.69317e-15
1.07203e-14
1.49386e-14
2.08168e-14
2.90079e-14
4.04222e-14
5.63278e-14
7.8492e-14
1.09378e-13
1.52416e-13
2.1239e-13
2.95963e-13
4.1242e-13
5.74702e-13
8.0084e-13
1.11596e-12
1.55507e-12
2.16698e-12
3.01965e-12
4.20785e-12
5.86358e-12
8.17082e-12
1.13859e-11
1.58661e-11
2.21093e-11
3.0809e-11
4.29319e-11
5.9825e-11
8.33653e-11
1.16169e-10
1.61879e-10
2.25577e-10
3.14338e-10
4.38026e-10
6.10383e-10
8.50561e-10
1.18525e-09
1.65162e-09
2.30152e-09
3.20713e-09
4.4691e-09
6.22763e-09
8.67812e-09
1.20928e-08
1.68512e-08
2.3482e-08
3.27218e-08
4.55974e-08
6.35394e-08
8.85412e-08
1.23381e-07
1.7193e-07
2.39582e-07
3.33854e-07
4.65222e-07
6.4828e-07
9.0337e-07
1.25883e-06
1.75417e-06
2.44441e-06
3.40625e-06
4.74657e-06
6.61428e-06
9.21692e-06
1.28437e-05
1.78975e-05
2.49399e-05
3.47534e-05
4.84284e-05
6.74843e-05
9.40385e-05
0
0
0
0
0
0
0
)
;

boundaryField
{
    frontHeated
    {
        type            zeroGradient;
    }
    backOutlet
    {
        type            zeroGradient;
    }
    defaultFaces
    {
        type            empty;
    }
}


// ************************************************************************* //
