/*--------------------------------*- C++ -*----------------------------------*\
  =========                 |
  \\      /  F ield         | OpenFOAM: The Open Source CFD Toolbox
   \\    /   O peration     | Website:  https://openfoam.org
    \\  /    A nd           | Version:  dev
     \\/     M anipulation  |
\*---------------------------------------------------------------------------*/
FoamFile
{
    format      ascii;
    class       volScalarField;
    location    "0.224254";
    object      T;
}
// * * * * * * * * * * * * * * * * * * * * * * * * * * * * * * * * * * * * * //

dimensions      [0 0 0 1 0 0 0];

internalField   nonuniform List<scalar> 
100
(
240.177
206.21
196.044
191.949
190.009
188.989
188.418
188.086
187.893
187.785
187.733
187.719
187.73
187.759
187.802
187.852
187.909
187.968
188.03
188.091
188.151
188.208
188.263
188.314
188.362
188.407
188.448
188.488
188.526
188.564
188.605
188.649
188.7
188.759
188.831
188.919
189.026
189.155
189.312
189.501
189.725
189.99
190.299
190.658
191.072
191.545
192.081
192.686
193.364
194.12
194.958
195.883
196.9
198.014
199.229
200.55
201.983
203.532
205.202
206.999
208.928
210.992
213.198
215.55
218.05
220.704
223.517
226.495
229.648
232.988
236.527
240.281
244.264
248.488
252.96
257.685
262.657
267.868
273.299
278.93
284.733
290.68
296.7
302.89
308.788
314.35
320.314
327.616
336.711
343.624
356.08
369.725
372.084
385.121
385.123
385.124
385.126
385.128
385.13
384.904
)
;

boundaryField
{
    frontHeated
    {
        type            fixedValue;
        value           uniform 385.15;
    }
    backOutlet
    {
        type            fixedValue;
        value           uniform 385.15;
    }
    defaultFaces
    {
        type            empty;
    }
}


// ************************************************************************* //
