/*--------------------------------*- C++ -*----------------------------------*\
  =========                 |
  \\      /  F ield         | OpenFOAM: The Open Source CFD Toolbox
   \\    /   O peration     | Website:  https://openfoam.org
    \\  /    A nd           | Version:  dev
     \\/     M anipulation  |
\*---------------------------------------------------------------------------*/
FoamFile
{
    format      ascii;
    class       volScalarField;
    location    "0.200433";
    object      p_rgh;
}
// * * * * * * * * * * * * * * * * * * * * * * * * * * * * * * * * * * * * * //

dimensions      [1 -1 -2 0 0 0 0];

internalField   nonuniform List<scalar> 
100
(
10000.4
10000.5
10000.5
10000.5
10000.5
10000.5
10000.5
10000.5
10000.5
10000.5
10000.5
10000.5
10000.5
10000.5
10000.5
10000.5
10000.5
10000.5
10000.5
10000.5
10000.5
10000.5
10000.5
10000.5
10000.5
10000.5
10000.5
10000.5
10000.5
10000.5
10000.5
10000.5
10000.5
10000.5
10000.5
10000.5
10000.5
10000.5
10000.5
10000.5
10000.5
10000.5
10000.5
10000.5
10000.5
10000.5
10000.5
10000.5
10000.5
10000.5
10000.5
10000.5
10000.5
10000.5
10000.5
10000.5
10000.5
10000.5
10000.5
10000.5
10000.5
10000.4
10000.4
10000.4
10000.4
10000.4
10000.4
10000.4
10000.4
10000.4
10000.4
10000.4
10000.4
10000.3
10000.3
10000.3
10000.3
10000.3
10000.3
10000.3
10000.3
10000.3
10000.2
13082.7
14346.2
14510.4
14603.5
14653.9
14683.1
14703.2
14720.2
14725.8
14746.8
14754.6
14741.9
14741.9
14742.1
14742.1
14668.5
14572.6
)
;

boundaryField
{
    frontHeated
    {
        type            fixedFluxPressure;
        gradient        uniform -34.1303;
        value           uniform 10000.3;
    }
    backOutlet
    {
        type            prghTotalPressure;
        rho             thermo:rho;
        psi             none;
        gamma           1;
        p0              uniform 0;
        value           uniform 4572.54;
        rho             thermo:rho;
    }
    defaultFaces
    {
        type            empty;
    }
}


// ************************************************************************* //
