/*--------------------------------*- C++ -*----------------------------------*\
  =========                 |
  \\      /  F ield         | OpenFOAM: The Open Source CFD Toolbox
   \\    /   O peration     | Website:  https://openfoam.org
    \\  /    A nd           | Version:  dev
     \\/     M anipulation  |
\*---------------------------------------------------------------------------*/
FoamFile
{
    format      ascii;
    class       volScalarField;
    location    "0.123956";
    object      p;
}
// * * * * * * * * * * * * * * * * * * * * * * * * * * * * * * * * * * * * * //

dimensions      [1 -1 -2 0 0 0 0];

internalField   nonuniform List<scalar> 
100
(
13162.3
13162.3
13162.3
13162.3
13162.3
13162.3
13162.3
13162.3
13162.3
13162.3
13162.3
13162.3
13162.3
13162.3
13162.3
13162.3
13162.3
13162.3
13162.3
13162.3
13162.3
13162.3
13162.3
13162.3
13162.3
13162.3
13162.3
13162.2
13162.2
13162.2
13162.2
13162.2
13162.2
13162.2
13162.2
13162.2
13162.1
13162.1
13162.1
13162.1
13162
13162
13161.9
13161.9
13161.9
13161.9
13161.4
13161.9
13046.1
12835.4
12695.5
12614.4
12536.9
12452.1
12369.4
12287.7
12205.5
12123
12040.4
11957.8
11875
11792.1
11709
11625.8
11542.4
11458.9
11375.1
11291.2
11207.1
11122.8
11038.3
10953.6
10868.7
10783.6
10698.4
10613
10527.5
10441.9
10356.2
10270.5
10184.6
10098.5
10011.5
10000
10000
10000
10000
10000
10000
10000
10000
10000
10000
10000
10000
10000
10000
10000
10000
10000
)
;

boundaryField
{
    frontHeated
    {
        type            calculated;
        value           uniform 13162.3;
    }
    backOutlet
    {
        type            calculated;
        value           uniform 10000;
    }
    defaultFaces
    {
        type            empty;
    }
}


// ************************************************************************* //
