/*--------------------------------*- C++ -*----------------------------------*\
  =========                 |
  \\      /  F ield         | OpenFOAM: The Open Source CFD Toolbox
   \\    /   O peration     | Website:  https://openfoam.org
    \\  /    A nd           | Version:  dev
     \\/     M anipulation  |
\*---------------------------------------------------------------------------*/
FoamFile
{
    format      ascii;
    class       volScalarField;
    location    "2.044931";
    object      p_rgh;
}
// * * * * * * * * * * * * * * * * * * * * * * * * * * * * * * * * * * * * * //

dimensions      [1 -1 -2 0 0 0 0];

internalField   nonuniform List<scalar> 
100
(
100006
100006
100006
100006
100006
100006
100006
100006
100006
100006
102209
104745
104759
104759
104759
104759
104759
104759
104759
104759
104759
104759
104759
104759
104759
104758
104758
104758
104758
104758
104758
104758
104758
104758
104758
104758
104758
104758
104758
104758
104758
104758
104758
104758
104758
104758
104758
104757
104757
104757
104757
104757
104757
104757
104757
104757
104757
104757
104757
104757
104757
104757
104757
104757
104757
104757
104757
104757
104756
104756
104756
104756
104756
104756
104756
104756
104756
104756
104756
104756
104756
104756
104756
104756
104756
104756
104756
104756
104756
104756
104756
104756
104756
104756
104756
104756
104756
104756
104756
104737
)
;

boundaryField
{
    frontHeated
    {
        type            fixedFluxPressure;
        gradient        uniform -7.67078;
        value           uniform 100006;
    }
    backOutlet
    {
        type            prghTotalPressure;
        rho             thermo:rho;
        psi             none;
        gamma           1;
        p0              uniform 100000;
        value           uniform 104737;
        rho             thermo:rho;
    }
    defaultFaces
    {
        type            empty;
    }
}


// ************************************************************************* //
