/*--------------------------------*- C++ -*----------------------------------*\
  =========                 |
  \\      /  F ield         | OpenFOAM: The Open Source CFD Toolbox
   \\    /   O peration     | Website:  https://openfoam.org
    \\  /    A nd           | Version:  dev
     \\/     M anipulation  |
\*---------------------------------------------------------------------------*/
FoamFile
{
    format      ascii;
    class       surfaceScalarField;
    location    "0.818223";
    object      alphaPhi.water;
}
// * * * * * * * * * * * * * * * * * * * * * * * * * * * * * * * * * * * * * //

dimensions      [0 3 -1 0 0 0 0];

internalField   nonuniform List<scalar> 
99
(
-4.76445e-27
-3.79439e-26
-9.75619e-24
-3.6862e-21
-2.76192e-19
0
-2.4637e-13
-4.04891e-14
1.58311e-12
1.90228e-12
0.000155134
0.000178814
0.000187126
0.000190997
0.000193225
0.00019441
0.00019491
0.00019516
0.000195318
0.000195429
0.000195519
0.000195593
0.000195656
0.000195708
0.00019575
0.000195785
0.000195813
0.000195836
0.000195855
0.000195869
0.000195881
0.00019589
0.000195897
0.000195903
0.000195907
0.000195911
0.000195913
0.000195915
0.000195917
0.000195918
0.000195919
0.00019592
0.00019592
0.00019592
0.000195921
0.000195921
0.000195921
0.000195921
0.000195921
0.000195921
0.000195921
0.000195921
0.000195921
0.000195921
0.000195921
0.000195921
0.000195921
0.000195921
0.000195921
0.000195921
0.000195921
0.000195921
0.000195921
0.000195921
0.000195921
0.000195921
0.00019592
0.00019592
0.000195919
0.000195919
0.000195918
0.000195917
0.000195915
0.000195913
0.00019591
0.000195906
0.000195902
0.000195895
0.000195887
0.000195877
0.000195864
0.000195847
0.000195825
0.000195798
0.000195764
0.000195722
0.00019567
0.000195605
0.000195524
0.000195423
0.000195293
0.000195122
0.000194898
0.000194502
0.000194094
0.000193059
0.000191148
0.000190139
0.000185065
)
;

boundaryField
{
    frontHeated
    {
        type            calculated;
        value           uniform 0;
    }
    backOutlet
    {
        type            calculated;
        value           uniform 0.000179921;
    }
    defaultFaces
    {
        type            empty;
        value           nonuniform List<scalar> 0();
    }
}


// ************************************************************************* //
