/*--------------------------------*- C++ -*----------------------------------*\
  =========                 |
  \\      /  F ield         | OpenFOAM: The Open Source CFD Toolbox
   \\    /   O peration     | Website:  https://openfoam.org
    \\  /    A nd           | Version:  dev
     \\/     M anipulation  |
\*---------------------------------------------------------------------------*/
FoamFile
{
    format      ascii;
    class       volScalarField;
    location    "0.818223";
    object      p_rgh;
}
// * * * * * * * * * * * * * * * * * * * * * * * * * * * * * * * * * * * * * //

dimensions      [1 -1 -2 0 0 0 0];

internalField   nonuniform List<scalar> 
100
(
99996.8
99996.8
99996.8
99996.8
99996.8
99996.8
99996.8
99996.8
99996.8
99996.8
102293
104744
104750
104750
104750
104750
104750
104750
104750
104750
104750
104750
104750
104750
104750
104750
104750
104750
104751
104751
104751
104751
104751
104751
104751
104751
104751
104751
104751
104751
104751
104752
104752
104752
104752
104752
104752
104752
104752
104752
104752
104752
104752
104752
104753
104753
104753
104753
104753
104753
104753
104753
104753
104753
104753
104753
104754
104754
104754
104754
104754
104754
104754
104754
104754
104754
104754
104754
104755
104755
104755
104755
104755
104755
104755
104755
104755
104755
104755
104755
104755
104755
104755
104755
104756
104756
104756
104756
104756
104754
)
;

boundaryField
{
    frontHeated
    {
        type            fixedFluxPressure;
        gradient        uniform -8.59907;
        value           uniform 99996.8;
    }
    backOutlet
    {
        type            prghTotalPressure;
        rho             thermo:rho;
        psi             none;
        gamma           1;
        p0              uniform 100000;
        value           uniform 104754;
        rho             thermo:rho;
    }
    defaultFaces
    {
        type            empty;
    }
}


// ************************************************************************* //
