/*--------------------------------*- C++ -*----------------------------------*\
  =========                 |
  \\      /  F ield         | OpenFOAM: The Open Source CFD Toolbox
   \\    /   O peration     | Website:  https://openfoam.org
    \\  /    A nd           | Version:  dev
     \\/     M anipulation  |
\*---------------------------------------------------------------------------*/
FoamFile
{
    format      ascii;
    class       volScalarField;
    location    "0.207816";
    object      p_rgh;
}
// * * * * * * * * * * * * * * * * * * * * * * * * * * * * * * * * * * * * * //

dimensions      [1 -1 -2 0 0 0 0];

internalField   nonuniform List<scalar> 
100
(
10000.4
10000.5
10000.5
10000.5
10000.5
10000.5
10000.6
10000.6
10000.6
10000.6
10000.6
10000.6
10000.6
10000.6
10000.6
10000.6
10000.6
10000.6
10000.6
10000.6
10000.6
10000.6
10000.5
10000.5
10000.5
10000.5
10000.5
10000.5
10000.5
10000.5
10000.5
10000.5
10000.5
10000.5
10000.5
10000.5
10000.5
10000.5
10000.5
10000.5
10000.5
10000.5
10000.5
10000.5
10000.5
10000.5
10000.5
10000.5
10000.5
10000.5
10000.5
10000.5
10000.5
10000.5
10000.5
10000.5
10000.5
10000.5
10000.5
10000.5
10000.5
10000.5
10000.5
10000.5
10000.4
10000.4
10000.4
10000.4
10000.4
10000.4
10000.4
10000.4
10000.4
10000.4
10000.4
10000.4
10000.3
10000.3
10000.3
10000.3
10000.3
10000.3
10000.3
10000.3
10000.3
10000.3
11731.5
14271.3
14486.6
14604.9
14663.8
14689.3
14702.7
14709.5
14713.7
14730.2
14755.7
14831.9
14502.5
14042.4
)
;

boundaryField
{
    frontHeated
    {
        type            fixedFluxPressure;
        gradient        uniform -33.8308;
        value           uniform 10000.3;
    }
    backOutlet
    {
        type            prghTotalPressure;
        rho             thermo:rho;
        psi             none;
        gamma           1;
        p0              uniform 0;
        value           uniform 4042.27;
        rho             thermo:rho;
    }
    defaultFaces
    {
        type            empty;
    }
}


// ************************************************************************* //
