/*--------------------------------*- C++ -*----------------------------------*\
  =========                 |
  \\      /  F ield         | OpenFOAM: The Open Source CFD Toolbox
   \\    /   O peration     | Website:  https://openfoam.org
    \\  /    A nd           | Version:  dev
     \\/     M anipulation  |
\*---------------------------------------------------------------------------*/
FoamFile
{
    format      ascii;
    class       volVectorField;
    location    "0.207816";
    object      U;
}
// * * * * * * * * * * * * * * * * * * * * * * * * * * * * * * * * * * * * * //

dimensions      [0 1 -1 0 0 0 0];

internalField   nonuniform List<vector> 
100
(
(0.034936 0 0)
(0.0909332 0 0)
(0.139837 0 0)
(0.186584 0 0)
(0.233123 0 0)
(0.279834 0 0)
(0.326648 0 0)
(0.373474 0 0)
(0.420286 0 0)
(0.467088 0 0)
(0.513888 0 0)
(0.560692 0 0)
(0.607504 0 0)
(0.654327 0 0)
(0.701167 0 0)
(0.748031 0 0)
(0.794928 0 0)
(0.841866 0 0)
(0.888853 0 0)
(0.935895 0 0)
(0.982998 0 0)
(1.03016 0 0)
(1.07739 0 0)
(1.12468 0 0)
(1.17201 0 0)
(1.21938 0 0)
(1.26676 0 0)
(1.31412 0 0)
(1.36143 0 0)
(1.40864 0 0)
(1.4557 0 0)
(1.50253 0 0)
(1.54907 0 0)
(1.59522 0 0)
(1.64088 0 0)
(1.68596 0 0)
(1.73036 0 0)
(1.77399 0 0)
(1.81673 0 0)
(1.85842 0 0)
(1.89891 0 0)
(1.93807 0 0)
(1.97582 0 0)
(2.01209 0 0)
(2.04682 0 0)
(2.07995 0 0)
(2.11141 0 0)
(2.14113 0 0)
(2.16904 0 0)
(2.19506 0 0)
(2.21914 0 0)
(2.24124 0 0)
(2.26132 0 0)
(2.27936 0 0)
(2.29533 0 0)
(2.30924 0 0)
(2.32109 0 0)
(2.33094 0 0)
(2.33881 0 0)
(2.34472 0 0)
(2.34883 0 0)
(2.35149 0 0)
(2.35315 0 0)
(2.35417 0 0)
(2.35467 0 0)
(2.3545 0 0)
(2.35309 0 0)
(2.34916 0 0)
(2.34057 0 0)
(2.3245 0 0)
(2.29823 0 0)
(2.26029 0 0)
(2.21147 0 0)
(2.1554 0 0)
(2.09848 0 0)
(2.04907 0 0)
(2.01608 0 0)
(2.00804 0 0)
(2.03249 0 0)
(2.09478 0 0)
(2.19496 0 0)
(2.33538 0 0)
(2.31516 0 0)
(2.52651 0 0)
(3.19025 0 0)
(4.14667 0 0)
(4.54393 0 0)
(4.60298 0 0)
(4.65486 0 0)
(4.66126 0 0)
(4.65713 0 0)
(4.65323 0 0)
(4.65088 0 0)
(4.6485 0 0)
(4.64493 0 0)
(4.64772 0 0)
(4.62097 0 0)
(4.73723 0 0)
(4.18406 0 0)
(6.79282 0 0)
)
;

boundaryField
{
    frontHeated
    {
        type            noSlip;
    }
    backOutlet
    {
        type            pressureInletOutletVelocity;
        value           uniform (6.79282 0 0);
    }
    defaultFaces
    {
        type            empty;
    }
}


// ************************************************************************* //
