/*--------------------------------*- C++ -*----------------------------------*\
  =========                 |
  \\      /  F ield         | OpenFOAM: The Open Source CFD Toolbox
   \\    /   O peration     | Website:  https://openfoam.org
    \\  /    A nd           | Version:  dev
     \\/     M anipulation  |
\*---------------------------------------------------------------------------*/
FoamFile
{
    format      ascii;
    class       volScalarField;
    location    "0.220748";
    object      thermo:rho;
}
// * * * * * * * * * * * * * * * * * * * * * * * * * * * * * * * * * * * * * //

dimensions      [1 -3 0 0 0 0 0];

internalField   nonuniform List<scalar> 
100
(
0.0902451
0.104793
0.11005
0.112305
0.113402
0.113985
0.114313
0.114503
0.114612
0.114672
0.114699
0.114704
0.114695
0.114674
0.114647
0.114614
0.114578
0.114541
0.114503
0.114465
0.114429
0.114394
0.114361
0.11433
0.114301
0.114274
0.114249
0.114226
0.114202
0.114178
0.114153
0.114124
0.114091
0.114051
0.114002
0.113943
0.11387
0.113782
0.113675
0.113548
0.113397
0.11322
0.113014
0.112777
0.112505
0.112197
0.111851
0.111464
0.111034
0.110559
0.110039
0.109471
0.108854
0.108188
0.107471
0.106703
0.105883
0.105012
0.10409
0.103116
0.102091
0.101018
0.0998964
0.0987295
0.0975193
0.0962675
0.0949756
0.0936443
0.0922733
0.090862
0.0894098
0.0879166
0.0863842
0.0848159
0.0832176
0.081597
0.0799638
0.0783287
0.0767027
0.0750967
0.0735213
0.0719867
0.0705119
0.0690579
0.0678646
0.0667126
0.0652417
0.0633447
0.0613698
0.0606013
0.056408
0.0515209
413.663
936.636
901.697
906.163
908.942
906.511
873.549
736.813
)
;

boundaryField
{
    frontHeated
    {
        type            calculated;
        value           uniform 0.0562093;
    }
    backOutlet
    {
        type            calculated;
        value           uniform 736.766;
    }
    defaultFaces
    {
        type            empty;
    }
}


// ************************************************************************* //
