/*--------------------------------*- C++ -*----------------------------------*\
  =========                 |
  \\      /  F ield         | OpenFOAM: The Open Source CFD Toolbox
   \\    /   O peration     | Website:  https://openfoam.org
    \\  /    A nd           | Version:  dev
     \\/     M anipulation  |
\*---------------------------------------------------------------------------*/
FoamFile
{
    format      ascii;
    class       volScalarField;
    location    "0.105928";
    object      p;
}
// * * * * * * * * * * * * * * * * * * * * * * * * * * * * * * * * * * * * * //

dimensions      [1 -1 -2 0 0 0 0];

internalField   nonuniform List<scalar> 
100
(
16418.6
16418.6
16418.6
16418.6
16418.6
16418.6
16418.6
16418.6
16418.6
16418.6
16418.5
16418.5
16418.5
16418.5
16418.5
16418.5
16418.5
16418.5
16418.5
16418.5
16418.4
16418.4
16418.4
16418.4
16418.4
16418.3
16418.3
16418.3
16418.3
16418.2
16418.2
16418.1
16418.1
16418
16418
16417.9
16417.8
16417.8
16417.4
16417.7
16438.6
16080.3
15874.1
15758.1
15633.8
15500.8
15372.4
15245.1
15117.2
14989.1
14861.1
14732.9
14604.5
14475.8
14346.8
14217.5
14087.8
13957.8
13827.3
13696.4
13565.2
13433.4
13301.3
13168.9
13036.1
12903
12769.6
12636
12502.3
12368.4
12234.3
12100.2
11966
11831.7
11697.4
11563
11428.7
11294.3
11159.8
11025.4
10891
10756.6
10622.1
10487.7
10353.2
10218.5
10084.3
10000
10000
10000
10000
10000
10000
10000
10000
10000
10000
10000
10000
10000
)
;

boundaryField
{
    frontHeated
    {
        type            calculated;
        value           uniform 16418.6;
    }
    backOutlet
    {
        type            calculated;
        value           uniform 10000;
    }
    defaultFaces
    {
        type            empty;
    }
}


// ************************************************************************* //
