/*--------------------------------*- C++ -*----------------------------------*\
  =========                 |
  \\      /  F ield         | OpenFOAM: The Open Source CFD Toolbox
   \\    /   O peration     | Website:  https://openfoam.org
    \\  /    A nd           | Version:  dev
     \\/     M anipulation  |
\*---------------------------------------------------------------------------*/
FoamFile
{
    format      ascii;
    class       volScalarField;
    location    "0.226199";
    object      thermo:rho;
}
// * * * * * * * * * * * * * * * * * * * * * * * * * * * * * * * * * * * * * //

dimensions      [1 -3 0 0 0 0 0];

internalField   nonuniform List<scalar> 
100
(
0.0900774
0.10509
0.110638
0.11305
0.114233
0.114866
0.115225
0.115435
0.115558
0.115627
0.115662
0.115673
0.115667
0.11565
0.115626
0.115595
0.115561
0.115525
0.115487
0.11545
0.115413
0.115378
0.115344
0.115313
0.115283
0.115255
0.11523
0.115205
0.115182
0.115158
0.115134
0.115108
0.115078
0.115043
0.115002
0.114951
0.11489
0.114816
0.114727
0.11462
0.114493
0.114343
0.114168
0.113965
0.113733
0.113467
0.113167
0.112831
0.112456
0.11204
0.111581
0.111079
0.110532
0.109939
0.109298
0.10861
0.107872
0.107086
0.10625
0.105365
0.104431
0.103448
0.102419
0.101343
0.100223
0.0990602
0.0978569
0.0966142
0.0953329
0.0940133
0.0926552
0.0912583
0.0898228
0.0883497
0.0868415
0.0853024
0.0837382
0.0821567
0.0805664
0.0789769
0.0773973
0.0758412
0.0743044
0.0728174
0.0714204
0.0700835
0.0687057
0.0671781
0.0654764
0.0636334
0.0622993
0.0602235
0.0581571
0.059636
448.198
794.335
808.217
808.217
769.149
664.342
)
;

boundaryField
{
    frontHeated
    {
        type            calculated;
        value           uniform 0.0562093;
    }
    backOutlet
    {
        type            calculated;
        value           uniform 664.276;
    }
    defaultFaces
    {
        type            empty;
    }
}


// ************************************************************************* //
