/*--------------------------------*- C++ -*----------------------------------*\
  =========                 |
  \\      /  F ield         | OpenFOAM: The Open Source CFD Toolbox
   \\    /   O peration     | Website:  https://openfoam.org
    \\  /    A nd           | Version:  dev
     \\/     M anipulation  |
\*---------------------------------------------------------------------------*/
FoamFile
{
    format      ascii;
    class       volScalarField;
    location    "0.0635309";
    object      p_rgh;
}
// * * * * * * * * * * * * * * * * * * * * * * * * * * * * * * * * * * * * * //

dimensions      [1 -1 -2 0 0 0 0];

internalField   nonuniform List<scalar> 
100
(
32257.1
32257.1
32257.1
32257.1
32257.1
32257.1
32257.1
32257
32257
32256.9
32256.9
32256.8
32256.8
32256.7
32256.6
32256.5
32256.4
32256.3
32256.1
32255.9
32255.7
32255.5
32255.3
32792.4
36072.5
35948.5
35773.8
35537.3
35261.3
34968.5
34665.3
34355.5
34041.4
33724.5
33405.1
33083.4
32759.4
32433.1
32104.6
31774
31441.5
31107.3
30771.8
30435.3
30098
29760.1
29421.8
29083.2
28744.4
28405.4
28066.3
27727.2
27388
27048.8
26709.5
26370.3
26031
25691.8
25352.5
25013.2
24674
24334.7
23995.4
23656.1
23316.9
22977.6
22638.3
22299.1
21959.8
21620.5
21281.2
20942
20602.7
20263.4
19924.1
19584.9
19245.6
18906.3
18567
18227.8
17888.5
17549.2
17209.9
16870.7
16531.4
16192.1
15852.9
15512.4
15173.9
14823.9
14755.7
14755.7
14755.7
14755.7
14755.7
14755.7
14755.7
14755.7
14755.7
14755.7
)
;

boundaryField
{
    frontHeated
    {
        type            fixedFluxPressure;
        gradient        uniform -58.551;
        value           uniform 32256.8;
    }
    backOutlet
    {
        type            prghTotalPressure;
        rho             thermo:rho;
        psi             none;
        gamma           1;
        p0              uniform 0;
        value           uniform 4755.66;
        rho             thermo:rho;
    }
    defaultFaces
    {
        type            empty;
    }
}


// ************************************************************************* //
