/*--------------------------------*- C++ -*----------------------------------*\
  =========                 |
  \\      /  F ield         | OpenFOAM: The Open Source CFD Toolbox
   \\    /   O peration     | Website:  https://openfoam.org
    \\  /    A nd           | Version:  dev
     \\/     M anipulation  |
\*---------------------------------------------------------------------------*/
FoamFile
{
    format      ascii;
    class       volScalarField;
    location    "0.0635309";
    object      T;
}
// * * * * * * * * * * * * * * * * * * * * * * * * * * * * * * * * * * * * * //

dimensions      [0 0 0 1 0 0 0];

internalField   nonuniform List<scalar> 
100
(
289.774
287.885
287.495
287.432
287.494
287.613
287.748
287.867
287.944
287.966
287.955
287.897
287.962
288.561
290.199
293.33
298.314
305.459
315.078
327.505
343.305
362.308
385.059
385.117
385.123
385.128
385.133
385.137
385.14
385.143
385.145
385.147
385.148
385.149
385.15
385.151
385.151
385.151
385.151
385.152
385.152
385.152
385.152
385.152
385.152
385.152
385.152
385.152
385.152
385.152
385.152
385.152
385.152
385.152
385.152
385.152
385.152
385.152
385.152
385.152
385.152
385.152
385.152
385.152
385.152
385.152
385.152
385.152
385.152
385.152
385.152
385.152
385.152
385.152
385.152
385.152
385.152
385.152
385.152
385.152
385.152
385.152
385.152
385.152
385.152
385.152
385.152
385.152
385.152
385.152
385.152
385.152
385.152
385.152
385.152
385.151
385.151
385.151
385.15
385.15
)
;

boundaryField
{
    frontHeated
    {
        type            fixedValue;
        value           uniform 385.15;
    }
    backOutlet
    {
        type            fixedValue;
        value           uniform 385.15;
    }
    defaultFaces
    {
        type            empty;
    }
}


// ************************************************************************* //
