/*--------------------------------*- C++ -*----------------------------------*\
  =========                 |
  \\      /  F ield         | OpenFOAM: The Open Source CFD Toolbox
   \\    /   O peration     | Website:  https://openfoam.org
    \\  /    A nd           | Version:  dev
     \\/     M anipulation  |
\*---------------------------------------------------------------------------*/
FoamFile
{
    format      ascii;
    class       volScalarField;
    location    "0.0635309";
    object      thermo:rho;
}
// * * * * * * * * * * * * * * * * * * * * * * * * * * * * * * * * * * * * * //

dimensions      [1 -3 0 0 0 0 0];

internalField   nonuniform List<scalar> 
100
(
0.240985
0.242566
0.242894
0.242947
0.242895
0.242794
0.24268
0.242579
0.242515
0.242496
0.242504
0.242553
0.242498
0.241994
0.240627
0.238059
0.234081
0.228605
0.221624
0.213214
0.2034
0.192731
0.17883
101.768
857.262
906.275
933.875
949.432
958.204
963.152
965.943
967.517
968.405
968.906
969.188
969.347
969.437
969.487
969.516
969.532
969.541
969.546
969.549
969.55
969.551
969.552
969.552
969.552
969.552
969.552
969.552
969.552
969.552
969.552
969.552
969.552
969.552
969.552
969.552
969.552
969.552
969.552
969.552
969.552
969.552
969.552
969.552
969.552
969.552
969.552
969.552
969.552
969.552
969.552
969.552
969.552
969.552
969.552
969.552
969.552
969.552
969.552
969.552
969.552
969.552
969.552
969.552
969.552
969.552
969.552
969.552
969.552
969.552
969.552
969.552
969.553
969.553
969.553
969.553
969.553
)
;

boundaryField
{
    frontHeated
    {
        type            calculated;
        value           uniform 0.181308;
    }
    backOutlet
    {
        type            calculated;
        value           uniform 969.553;
    }
    defaultFaces
    {
        type            empty;
    }
}


// ************************************************************************* //
