/*--------------------------------*- C++ -*----------------------------------*\
  =========                 |
  \\      /  F ield         | OpenFOAM: The Open Source CFD Toolbox
   \\    /   O peration     | Website:  https://openfoam.org
    \\  /    A nd           | Version:  dev
     \\/     M anipulation  |
\*---------------------------------------------------------------------------*/
FoamFile
{
    format      ascii;
    class       volScalarField;
    location    "0.00264";
    object      p;
}
// * * * * * * * * * * * * * * * * * * * * * * * * * * * * * * * * * * * * * //

dimensions      [1 -1 -2 0 0 0 0];

internalField   nonuniform List<scalar> 
100
(
99363.9
99363.9
99363.9
99363.9
99364
99364
99364.1
99364.1
99364.2
99364.4
99363
98594.8
97444.6
96315.6
95202.9
94091
92978.6
91866.1
90753.7
89641.2
88528.8
87416.4
86303.9
85191.5
84079
82966.6
81854.1
80741.7
79629.3
78516.8
77404.4
76291.9
75179.5
74067
72954.6
71842.2
70729.7
69617.3
68504.8
67392.4
66279.9
65167.5
64055.1
62942.6
61830.2
60717.7
59605.3
58492.8
57380.4
56267.9
55155.5
54043.1
52930.6
51818.2
50705.7
49593.3
48480.8
47368.4
46255.9
45143.5
44031.1
42918.6
41806.2
40693.7
39581.3
38468.8
37356.4
36243.9
35131.5
34019
32906.6
31794.1
30681.7
29569.3
28456.8
27344.4
26231.9
25119.5
24007
22894.6
21782.1
20669.7
19557.2
18444.8
17332.3
16219.9
15107.5
13995.9
12885.4
11752
10536
10000
10000
10000
10000
10000
10000
10000
10000
10000
)
;

boundaryField
{
    frontHeated
    {
        type            calculated;
        value           uniform 99363.9;
    }
    backOutlet
    {
        type            calculated;
        value           uniform 10000;
    }
    defaultFaces
    {
        type            empty;
    }
}


// ************************************************************************* //
