/*--------------------------------*- C++ -*----------------------------------*\
  =========                 |
  \\      /  F ield         | OpenFOAM: The Open Source CFD Toolbox
   \\    /   O peration     | Website:  https://openfoam.org
    \\  /    A nd           | Version:  dev
     \\/     M anipulation  |
\*---------------------------------------------------------------------------*/
FoamFile
{
    format      ascii;
    class       volScalarField;
    location    "0.00264";
    object      p_rgh;
}
// * * * * * * * * * * * * * * * * * * * * * * * * * * * * * * * * * * * * * //

dimensions      [1 -1 -2 0 0 0 0];

internalField   nonuniform List<scalar> 
100
(
99366.7
99366.7
99366.7
99366.7
99366.8
99366.8
99366.9
99366.9
99367
99367.2
101651
103350
102200
101071
99958.5
98846.6
97734.2
96621.8
95509.3
94396.9
93284.5
92172
91059.6
89947.1
88834.7
87722.2
86609.8
85497.4
84384.9
83272.5
82160
81047.6
79935.1
78822.7
77710.3
76597.8
75485.4
74372.9
73260.5
72148
71035.6
69923.2
68810.7
67698.3
66585.8
65473.4
64360.9
63248.5
62136
61023.6
59911.2
58798.7
57686.3
56573.8
55461.4
54348.9
53236.5
52124
51011.6
49899.2
48786.7
47674.3
46561.8
45449.4
44336.9
43224.5
42112
40999.6
39887.1
38774.7
37662.3
36549.8
35437.4
34324.9
33212.5
32100
30987.6
29875.1
28762.7
27650.2
26537.8
25425.3
24312.9
23200.4
22088
20975.5
19863.1
18751.6
17641
16507.7
15291.7
14755.7
14755.7
14755.7
14755.7
14755.7
14755.7
14755.7
14755.7
14755.7
)
;

boundaryField
{
    frontHeated
    {
        type            fixedFluxPressure;
        gradient        uniform -10.6725;
        value           uniform 99366.6;
    }
    backOutlet
    {
        type            prghTotalPressure;
        rho             thermo:rho;
        psi             none;
        gamma           1;
        p0              uniform 0;
        value           uniform 4755.66;
        rho             thermo:rho;
    }
    defaultFaces
    {
        type            empty;
    }
}


// ************************************************************************* //
