/*--------------------------------*- C++ -*----------------------------------*\
  =========                 |
  \\      /  F ield         | OpenFOAM: The Open Source CFD Toolbox
   \\    /   O peration     | Website:  https://openfoam.org
    \\  /    A nd           | Version:  dev
     \\/     M anipulation  |
\*---------------------------------------------------------------------------*/
FoamFile
{
    format      ascii;
    class       volScalarField;
    location    "0.00264";
    object      p_rgh;
}
// * * * * * * * * * * * * * * * * * * * * * * * * * * * * * * * * * * * * * //

dimensions      [1 -1 -2 0 0 0 0];

internalField   nonuniform List<scalar> 
100
(
99974.5
99974.6
99974.7
99974.9
99975.2
99975.6
99976
99976.5
99977
99977.9
102360
104748
104747
104747
104747
104748
104748
104748
104748
104748
104748
104749
104749
104749
104749
104749
104749
104749
104749
104750
104750
104750
104750
104750
104750
104750
104750
104750
104750
104750
104751
104751
104751
104751
104751
104751
104751
104751
104751
104751
104751
104751
104752
104752
104752
104752
104752
104752
104752
104752
104752
104752
104752
104753
104753
104753
104753
104753
104753
104753
104753
104753
104753
104753
104753
104754
104754
104754
104754
104754
104754
104754
104754
104754
104754
104754
104754
104755
104755
104755
104755
104755
104755
104755
104755
104755
104755
104755
104756
104755
)
;

boundaryField
{
    frontHeated
    {
        type            fixedFluxPressure;
        gradient        uniform -10.4042;
        value           uniform 99974.5;
    }
    backOutlet
    {
        type            prghTotalPressure;
        rho             thermo:rho;
        psi             none;
        gamma           1;
        p0              uniform 100000;
        value           uniform 100003;
        rho             thermo:rho;
    }
    defaultFaces
    {
        type            empty;
    }
}


// ************************************************************************* //
