/*--------------------------------*- C++ -*----------------------------------*\
  =========                 |
  \\      /  F ield         | OpenFOAM: The Open Source CFD Toolbox
   \\    /   O peration     | Website:  https://openfoam.org
    \\  /    A nd           | Version:  dev
     \\/     M anipulation  |
\*---------------------------------------------------------------------------*/
FoamFile
{
    format      ascii;
    class       volScalarField;
    location    "0.00264";
    object      T;
}
// * * * * * * * * * * * * * * * * * * * * * * * * * * * * * * * * * * * * * //

dimensions      [0 0 0 1 0 0 0];

internalField   nonuniform List<scalar> 
100
(
378.016
377.994
377.994
377.995
377.995
377.996
378.003
378.062
378.612
385.09
385.144
385.149
385.15
385.15
385.15
385.15
385.15
385.15
385.15
385.15
385.15
385.15
385.15
385.15
385.15
385.15
385.15
385.15
385.15
385.15
385.15
385.15
385.15
385.15
385.15
385.15
385.15
385.15
385.15
385.15
385.15
385.15
385.15
385.15
385.15
385.15
385.15
385.15
385.15
385.15
385.15
385.15
385.15
385.15
385.15
385.15
385.15
385.15
385.15
385.15
385.15
385.15
385.15
385.15
385.15
385.15
385.15
385.15
385.15
385.15
385.15
385.15
385.15
385.15
385.15
385.15
385.15
385.15
385.15
385.15
385.15
385.15
385.15
385.15
385.15
385.15
385.15
385.15
385.15
385.15
385.15
385.15
385.15
385.15
385.15
385.15
385.15
385.15
385.15
385.15
)
;

boundaryField
{
    frontHeated
    {
        type            fixedValue;
        value           uniform 385.15;
    }
    backOutlet
    {
        type            fixedValue;
        value           uniform 385.15;
    }
    defaultFaces
    {
        type            empty;
    }
}


// ************************************************************************* //
