/*--------------------------------*- C++ -*----------------------------------*\
  =========                 |
  \\      /  F ield         | OpenFOAM: The Open Source CFD Toolbox
   \\    /   O peration     | Website:  https://openfoam.org
    \\  /    A nd           | Version:  dev
     \\/     M anipulation  |
\*---------------------------------------------------------------------------*/
FoamFile
{
    format      ascii;
    class       volScalarField;
    location    "0.0965974";
    object      p;
}
// * * * * * * * * * * * * * * * * * * * * * * * * * * * * * * * * * * * * * //

dimensions      [1 -1 -2 0 0 0 0];

internalField   nonuniform List<scalar> 
100
(
18683
18683
18683
18683
18683
18683
18683
18683
18683
18683
18683
18683
18683
18683
18682.9
18682.9
18682.9
18682.9
18682.9
18682.8
18682.8
18682.8
18682.7
18682.7
18682.7
18682.6
18682.6
18682.5
18682.5
18682.4
18682.3
18682.2
18682.2
18682.1
18681.8
18681.9
18759.6
18342.7
18099.4
17956.9
17802.2
17638.5
17480.1
17322.9
17165.1
17007.3
16849.5
16691.4
16532.9
16374.1
16214.9
16055.2
15895
15734.2
15572.8
15410.8
15248.2
15085.1
14921.4
14757.3
14592.7
14427.8
14262.6
14097.2
13931.5
13765.8
13599.9
13433.9
13267.8
13101.7
12935.5
12769.3
12603.1
12436.9
12270.7
12104.4
11938.2
11772
11605.7
11439.4
11273.2
11106.9
10940.7
10774.4
10608.1
10441.8
10275.4
10110.5
10000
10000
10000
10000
10000
10000
10000
10000
10000
10000
10000
10000
)
;

boundaryField
{
    frontHeated
    {
        type            calculated;
        value           uniform 18683;
    }
    backOutlet
    {
        type            calculated;
        value           uniform 10000;
    }
    defaultFaces
    {
        type            empty;
    }
}


// ************************************************************************* //
