/*--------------------------------*- C++ -*----------------------------------*\
  =========                 |
  \\      /  F ield         | OpenFOAM: The Open Source CFD Toolbox
   \\    /   O peration     | Website:  https://openfoam.org
    \\  /    A nd           | Version:  dev
     \\/     M anipulation  |
\*---------------------------------------------------------------------------*/
FoamFile
{
    format      ascii;
    class       volScalarField;
    location    "0.0965974";
    object      p_rgh;
}
// * * * * * * * * * * * * * * * * * * * * * * * * * * * * * * * * * * * * * //

dimensions      [1 -1 -2 0 0 0 0];

internalField   nonuniform List<scalar> 
100
(
18683.8
18683.8
18683.8
18683.8
18683.8
18683.8
18683.8
18683.8
18683.8
18683.8
18683.8
18683.8
18683.8
18683.7
18683.7
18683.7
18683.7
18683.7
18683.6
18683.6
18683.6
18683.6
18683.5
18683.5
18683.4
18683.4
18683.3
18683.2
18683.2
18683.1
18683
18682.9
18682.8
18682.6
18682.3
18682.4
20437.6
22619.3
22585
22560.2
22471.9
22345.7
22208.4
22063.1
21912
21758
21602.3
21445.4
21287.7
21129.3
20970.3
20810.7
20650.6
20489.8
20328.4
20166.5
20003.9
19840.7
19677.1
19512.9
19348.4
19183.5
19018.3
18852.8
18687.2
18521.4
18355.5
18189.5
18023.5
17857.3
17691.2
17525
17358.8
17192.6
17026.3
16860.1
16693.9
16527.6
16361.3
16195.1
16028.8
15862.6
15696.3
15530.1
15363.8
15197.5
15031.1
14866.1
14755.7
14755.7
14755.7
14755.7
14755.7
14755.7
14755.7
14755.7
14755.7
14755.7
14755.7
14755.7
)
;

boundaryField
{
    frontHeated
    {
        type            fixedFluxPressure;
        gradient        uniform -51.1895;
        value           uniform 18683.6;
    }
    backOutlet
    {
        type            prghTotalPressure;
        rho             thermo:rho;
        psi             none;
        gamma           1;
        p0              uniform 0;
        value           uniform 4755.66;
        rho             thermo:rho;
    }
    defaultFaces
    {
        type            empty;
    }
}


// ************************************************************************* //
