/*--------------------------------*- C++ -*----------------------------------*\
  =========                 |
  \\      /  F ield         | OpenFOAM: The Open Source CFD Toolbox
   \\    /   O peration     | Website:  https://openfoam.org
    \\  /    A nd           | Version:  dev
     \\/     M anipulation  |
\*---------------------------------------------------------------------------*/
FoamFile
{
    format      ascii;
    class       volScalarField;
    location    "0.0965974";
    object      thermo:rho;
}
// * * * * * * * * * * * * * * * * * * * * * * * * * * * * * * * * * * * * * //

dimensions      [1 -3 0 0 0 0 0];

internalField   nonuniform List<scalar> 
100
(
0.157199
0.160589
0.16137
0.161616
0.161679
0.161658
0.161595
0.16151
0.161418
0.161331
0.161255
0.161196
0.161158
0.161139
0.16113
0.161112
0.161051
0.160902
0.160613
0.160125
0.159383
0.158339
0.156951
0.15519
0.153033
0.150467
0.147488
0.144099
0.140309
0.136132
0.13159
0.126702
0.121532
0.115866
0.111564
0.0961307
342.099
871.893
914.491
938.493
952.027
959.663
963.971
966.403
967.775
968.55
968.987
969.233
969.373
969.451
969.495
969.52
969.534
969.542
969.547
969.549
969.55
969.551
969.552
969.552
969.552
969.552
969.552
969.552
969.552
969.552
969.552
969.552
969.552
969.552
969.552
969.552
969.552
969.552
969.552
969.552
969.552
969.552
969.552
969.552
969.552
969.552
969.552
969.552
969.552
969.552
969.552
969.552
969.552
969.552
969.552
969.552
969.552
969.552
969.552
969.552
969.552
969.552
969.552
969.553
)
;

boundaryField
{
    frontHeated
    {
        type            calculated;
        value           uniform 0.105016;
    }
    backOutlet
    {
        type            calculated;
        value           uniform 969.553;
    }
    defaultFaces
    {
        type            empty;
    }
}


// ************************************************************************* //
