/*--------------------------------*- C++ -*----------------------------------*\
  =========                 |
  \\      /  F ield         | OpenFOAM: The Open Source CFD Toolbox
   \\    /   O peration     | Website:  https://openfoam.org
    \\  /    A nd           | Version:  dev
     \\/     M anipulation  |
\*---------------------------------------------------------------------------*/
FoamFile
{
    format      ascii;
    class       volScalarField;
    location    "0.239624";
    object      T;
}
// * * * * * * * * * * * * * * * * * * * * * * * * * * * * * * * * * * * * * //

dimensions      [0 0 0 1 0 0 0];

internalField   nonuniform List<scalar> 
100
(
241.641
204.849
193.402
188.672
186.39
185.173
184.479
184.067
183.818
183.669
183.585
183.544
183.534
183.545
183.571
183.609
183.654
183.704
183.757
183.812
183.867
183.921
183.973
184.024
184.071
184.116
184.158
184.197
184.234
184.27
184.305
184.34
184.377
184.417
184.463
184.516
184.58
184.656
184.747
184.856
184.988
185.144
185.328
185.544
185.795
186.086
186.419
186.798
187.228
187.711
188.251
188.853
189.519
190.254
191.061
191.943
192.905
193.949
195.081
196.302
197.618
199.032
200.548
202.169
203.899
205.742
207.7
209.777
211.977
214.303
216.76
219.352
222.087
224.971
228.014
231.223
234.608
238.175
241.93
245.876
250.011
254.332
258.833
263.504
268.32
273.248
278.262
283.355
288.61
294.093
299.793
305.78
312.14
318.91
326.182
334.613
347.539
385.092
385.106
382.656
)
;

boundaryField
{
    frontHeated
    {
        type            fixedValue;
        value           uniform 385.15;
    }
    backOutlet
    {
        type            fixedValue;
        value           uniform 385.15;
    }
    defaultFaces
    {
        type            empty;
    }
}


// ************************************************************************* //
