/*--------------------------------*- C++ -*----------------------------------*\
  =========                 |
  \\      /  F ield         | OpenFOAM: The Open Source CFD Toolbox
   \\    /   O peration     | Website:  https://openfoam.org
    \\  /    A nd           | Version:  dev
     \\/     M anipulation  |
\*---------------------------------------------------------------------------*/
FoamFile
{
    format      ascii;
    class       volScalarField;
    location    "0.0989547";
    object      p;
}
// * * * * * * * * * * * * * * * * * * * * * * * * * * * * * * * * * * * * * //

dimensions      [1 -1 -2 0 0 0 0];

internalField   nonuniform List<scalar> 
100
(
18065.2
18065.2
18065.2
18065.2
18065.2
18065.2
18065.2
18065.2
18065.2
18065.1
18065.1
18065.1
18065.1
18065.1
18065.1
18065.1
18065
18065
18065
18065
18065
18064.9
18064.9
18064.9
18064.9
18064.8
18064.8
18064.7
18064.7
18064.6
18064.6
18064.5
18064.4
18064.3
18064.2
18063.9
18064.1
18129.4
17725.1
17491.1
17356
17209.4
17053.8
16903.4
16754.1
16604.3
16454.5
16304.6
16154.5
16004.1
15853.4
15702.3
15550.7
15398.7
15246.1
15093
14939.4
14785.2
14630.5
14475.3
14319.6
14163.6
14007.2
13850.5
13693.6
13536.5
13379.3
13221.9
13064.5
12906.9
12749.3
12591.7
12434
12276.4
12118.6
11960.9
11803.2
11645.5
11487.7
11330
11172.2
11014.5
10856.8
10699
10541.2
10383.4
10226
10069.2
10000
10000
10000
10000
10000
10000
10000
10000
10000
10000
10000
10000
)
;

boundaryField
{
    frontHeated
    {
        type            calculated;
        value           uniform 18065.2;
    }
    backOutlet
    {
        type            calculated;
        value           uniform 10000;
    }
    defaultFaces
    {
        type            empty;
    }
}


// ************************************************************************* //
