/*--------------------------------*- C++ -*----------------------------------*\
  =========                 |
  \\      /  F ield         | OpenFOAM: The Open Source CFD Toolbox
   \\    /   O peration     | Website:  https://openfoam.org
    \\  /    A nd           | Version:  dev
     \\/     M anipulation  |
\*---------------------------------------------------------------------------*/
FoamFile
{
    format      ascii;
    class       volScalarField;
    location    "0.0989547";
    object      thermo:rho;
}
// * * * * * * * * * * * * * * * * * * * * * * * * * * * * * * * * * * * * * //

dimensions      [1 -3 0 0 0 0 0];

internalField   nonuniform List<scalar> 
100
(
0.152978
0.156517
0.157338
0.157601
0.157673
0.15766
0.157603
0.157523
0.157434
0.157348
0.157271
0.15721
0.157168
0.157144
0.157132
0.157117
0.157074
0.156964
0.156743
0.156359
0.155763
0.154907
0.153752
0.152264
0.150421
0.148206
0.14561
0.142633
0.139278
0.135556
0.131481
0.127073
0.122351
0.117382
0.111925
0.107993
0.0921179
361.112
873.114
915.182
938.885
952.25
959.789
964.043
966.443
967.798
968.563
968.994
969.238
969.375
969.452
969.496
969.521
969.534
969.542
969.547
969.549
969.55
969.551
969.552
969.552
969.552
969.552
969.552
969.552
969.552
969.552
969.552
969.552
969.552
969.552
969.552
969.552
969.552
969.552
969.552
969.552
969.552
969.552
969.552
969.552
969.552
969.552
969.552
969.552
969.552
969.552
969.552
969.552
969.552
969.552
969.552
969.552
969.552
969.552
969.552
969.552
969.552
969.552
969.553
)
;

boundaryField
{
    frontHeated
    {
        type            calculated;
        value           uniform 0.101543;
    }
    backOutlet
    {
        type            calculated;
        value           uniform 969.553;
    }
    defaultFaces
    {
        type            empty;
    }
}


// ************************************************************************* //
